/*--------------------------------*- C++ -*----------------------------------*\
| =========                 |                                                 |
| \\      /  F ield         | OpenFOAM: The Open Source CFD Toolbox           |
|  \\    /   O peration     | Version:  v1906                                 |
|   \\  /    A nd           | Web:      www.OpenFOAM.com                      |
|    \\/     M anipulation  |                                                 |
\*---------------------------------------------------------------------------*/
FoamFile
{
    version     2.0;
    format      ascii;
    class       volScalarField;
    location    "19.44";
    object      p;
}
// * * * * * * * * * * * * * * * * * * * * * * * * * * * * * * * * * * * * * //

dimensions      [0 2 -2 0 0 0 0];


internalField   nonuniform List<scalar> 
1380
(
-4.54665e-10
-4.96057e-10
-5.07954e-10
-5.23472e-10
-5.63884e-10
-5.98716e-10
-6.17622e-10
-6.25225e-10
-6.25279e-10
-6.17397e-10
-6.00588e-10
-5.75027e-10
-5.40564e-10
-4.97794e-10
-4.4786e-10
-3.93444e-10
-3.36177e-10
-2.87206e-10
-2.54779e-10
-3.20269e-10
5.02481e-10
1.29139e-10
-2.55653e-10
-4.36078e-10
-6.07175e-10
-7.4832e-10
-8.41626e-10
-9.02418e-10
-9.39305e-10
-9.52619e-10
-9.4292e-10
-9.11656e-10
-8.60455e-10
-7.8762e-10
-6.89446e-10
-5.59306e-10
-3.90953e-10
-1.73148e-10
9.07637e-11
3.88309e-10
1.63886e-10
-1.41254e-10
-4.48961e-10
-5.27248e-10
-6.26886e-10
-7.16827e-10
-7.69278e-10
-7.92179e-10
-7.99549e-10
-7.94435e-10
-7.75666e-10
-7.42699e-10
-6.95983e-10
-6.35578e-10
-5.59515e-10
-4.66211e-10
-3.52338e-10
-2.24055e-10
-7.5016e-11
9.41634e-11
-1.59446e-10
-3.02523e-10
-4.86247e-10
-4.69422e-10
-5.08682e-10
-5.64619e-10
-5.98719e-10
-6.13548e-10
-6.21935e-10
-6.26014e-10
-6.24449e-10
-6.15492e-10
-5.98842e-10
-5.74787e-10
-5.43085e-10
-5.05295e-10
-4.57131e-10
-4.1685e-10
-3.41397e-10
-2.50295e-10
-4.31364e-10
-4.64367e-10
-6.0053e-10
-5.19104e-10
-4.79304e-10
-4.79255e-10
-4.78674e-10
-4.69747e-10
-4.64576e-10
-4.62659e-10
-4.62742e-10
-4.65624e-10
-4.70476e-10
-4.77712e-10
-4.88473e-10
-5.05787e-10
-5.20329e-10
-5.59841e-10
-5.41774e-10
-5.33442e-10
-5.92596e-10
-5.67735e-10
-7.05808e-10
-5.81843e-10
-4.58802e-10
-4.0275e-10
-3.74038e-10
-3.48018e-10
-3.33799e-10
-3.31693e-10
-3.39794e-10
-3.57901e-10
-3.84905e-10
-4.21548e-10
-4.69017e-10
-5.30636e-10
-5.89964e-10
-6.82536e-10
-6.84797e-10
-7.12707e-10
-6.68979e-10
-6.2619e-10
-7.95441e-10
-6.55465e-10
-4.6132e-10
-3.58901e-10
-3.10813e-10
-2.73859e-10
-2.54341e-10
-2.54207e-10
-2.68528e-10
-2.94987e-10
-3.35172e-10
-3.90181e-10
-4.60246e-10
-5.48532e-10
-6.29615e-10
-7.49597e-10
-7.43119e-10
-7.80048e-10
-6.69689e-10
-6.42913e-10
-8.8197e-10
-7.44194e-10
-4.89411e-10
-3.51583e-10
-2.92931e-10
-2.50077e-10
-2.26213e-10
-2.24185e-10
-2.39472e-10
-2.69437e-10
-3.14749e-10
-3.76411e-10
-4.54312e-10
-5.51707e-10
-6.32807e-10
-7.61157e-10
-7.2624e-10
-7.61517e-10
-5.56527e-10
-5.78128e-10
-9.25938e-10
-8.21661e-10
-5.33426e-10
-3.88068e-10
-3.39019e-10
-3.07177e-10
-2.94071e-10
-2.9808e-10
-3.13665e-10
-3.34774e-10
-3.61401e-10
-3.98116e-10
-4.48194e-10
-5.17164e-10
-5.66023e-10
-6.66552e-10
-5.83194e-10
-6.11453e-10
-4.6901e-10
-5.79266e-10
-1.014e-09
-9.66881e-10
-6.80461e-10
-5.30805e-10
-4.82484e-10
-4.56668e-10
-4.56585e-10
-4.61381e-10
-4.73032e-10
-4.2976e-10
-3.58939e-10
-3.33039e-10
-3.16315e-10
-3.31364e-10
-3.41194e-10
-4.35525e-10
-3.60584e-10
-4.38853e-10
-6.41911e-10
-8.07733e-10
-1.15084e-09
-9.20278e-10
-6.07849e-10
-5.19353e-10
-5.88419e-10
-7.54189e-10
-9.63053e-10
-1.15894e-09
-1.06919e-09
-7.34008e-10
-3.54223e-10
-5.90026e-11
9.14858e-11
1.89558e-10
2.35141e-10
1.28094e-10
1.31908e-10
-2.86664e-10
-1.04457e-09
-7.03361e-10
-7.77489e-10
-6.89843e-10
-8.38585e-11
3.02068e-10
5.33812e-10
7.71132e-10
8.0347e-10
9.93178e-10
8.28161e-10
2.93678e-10
-3.64511e-10
-1.52855e-09
-1.97197e-09
-1.7183e-09
-1.56798e-09
-1.52417e-09
-1.34142e-09
-1.13569e-09
1.56082e-10
-2.13655e-10
-1.19028e-09
-1.50186e-09
-1.28984e-09
-1.06539e-09
-9.1172e-10
-7.36396e-10
-4.89811e-10
-2.02969e-10
-7.3365e-11
-2.26729e-10
-4.98572e-10
-5.49525e-10
-3.95377e-10
-3.17875e-10
-2.56134e-10
-2.46815e-10
3.73633e-11
1.51592e-10
-4.25437e-10
-6.12349e-10
-1.27037e-09
-1.30022e-09
-8.50954e-10
-6.11392e-10
-5.138e-10
-4.18629e-10
-3.13512e-10
-1.96042e-10
-1.24071e-10
-1.40559e-10
-2.10927e-10
-3.13617e-10
-4.12402e-10
-4.93503e-10
-4.82909e-10
-5.32018e-10
-3.12435e-10
-3.26775e-10
-4.6471e-10
-6.05805e-10
-1.29171e-09
-1.32442e-09
-8.18252e-10
-5.38776e-10
-4.18994e-10
-3.10169e-10
-2.20015e-10
-1.54145e-10
-1.20872e-10
-1.39243e-10
-2.14504e-10
-3.2592e-10
-4.40916e-10
-5.50104e-10
-5.69351e-10
-6.30182e-10
-3.7453e-10
-3.57909e-10
-5.27387e-10
-6.91668e-10
-1.39693e-09
-1.41036e-09
-8.43418e-10
-5.09502e-10
-3.56983e-10
-2.37822e-10
-1.50251e-10
-1.00053e-10
-8.80459e-11
-1.15556e-10
-1.82623e-10
-2.82831e-10
-4.03997e-10
-5.419e-10
-5.91911e-10
-6.66784e-10
-3.97617e-10
-3.85358e-10
-4.81002e-10
-6.68411e-10
-1.41384e-09
-1.4435e-09
-8.61412e-10
-5.19021e-10
-3.67591e-10
-2.54751e-10
-1.76336e-10
-1.37007e-10
-1.32936e-10
-1.59104e-10
-2.13943e-10
-2.95902e-10
-3.99138e-10
-5.2115e-10
-5.52922e-10
-6.20617e-10
-3.39842e-10
-3.22056e-10
-4.32365e-10
-6.37831e-10
-1.42616e-09
-1.47627e-09
-8.85221e-10
-5.39621e-10
-3.90675e-10
-2.80042e-10
-2.0421e-10
-1.68044e-10
-1.6586e-10
-1.89887e-10
-2.37131e-10
-3.07125e-10
-3.96386e-10
-5.02626e-10
-5.16328e-10
-5.76262e-10
-2.85022e-10
-2.62772e-10
-3.89216e-10
-5.84321e-10
-1.40342e-09
-1.47925e-09
-8.94397e-10
-5.58809e-10
-4.20012e-10
-3.15479e-10
-2.43447e-10
-2.09549e-10
-2.07348e-10
-2.27879e-10
-2.6758e-10
-3.2654e-10
-4.02282e-10
-4.92479e-10
-4.85499e-10
-5.31725e-10
-2.30342e-10
-2.12923e-10
-2.87943e-10
-5.20233e-10
-1.39262e-09
-1.48989e-09
-9.1159e-10
-5.89466e-10
-4.6231e-10
-3.63538e-10
-2.94312e-10
-2.61373e-10
-2.57833e-10
-2.73888e-10
-3.05634e-10
-3.53374e-10
-4.14515e-10
-4.86845e-10
-4.58357e-10
-4.86637e-10
-1.58992e-10
-1.18327e-10
-2.50873e-10
-4.44909e-10
-1.33404e-09
-1.45904e-09
-9.05187e-10
-6.08211e-10
-4.96209e-10
-4.01993e-10
-3.33337e-10
-2.99969e-10
-2.9519e-10
-3.08577e-10
-3.35834e-10
-3.77154e-10
-4.29584e-10
-4.90714e-10
-4.48479e-10
-4.65945e-10
-1.16566e-10
-8.16686e-11
-1.64549e-10
-3.48285e-10
-1.23958e-09
-1.36134e-09
-8.34694e-10
-5.77282e-10
-4.97621e-10
-4.20695e-10
-3.60196e-10
-3.31484e-10
-3.30213e-10
-3.46512e-10
-3.7625e-10
-4.19601e-10
-4.73956e-10
-5.37561e-10
-5.01158e-10
-5.29612e-10
-1.64099e-10
-7.02555e-11
-2.98344e-10
-5.48782e-10
-1.43623e-09
-1.39739e-09
-8.05353e-10
-5.05438e-10
-4.07417e-10
-3.31508e-10
-2.78857e-10
-2.59704e-10
-2.67344e-10
-2.91072e-10
-3.26574e-10
-3.74476e-10
-4.34023e-10
-5.06057e-10
-4.84279e-10
-5.38173e-10
-1.99777e-10
-1.96718e-10
-3.15983e-14
-2.29148e-10
-1.24127e-09
-1.41465e-09
-9.84889e-10
-7.57982e-10
-6.81413e-10
-6.09129e-10
-5.49225e-10
-5.11131e-10
-4.89606e-10
-4.74976e-10
-4.62447e-10
-4.51807e-10
-4.4128e-10
-4.28472e-10
-3.03121e-10
-2.40288e-10
2.01062e-10
1.75514e-10
1.02202e-10
-1.18824e-10
-1.08635e-09
-1.26666e-09
-8.36916e-10
-6.71458e-10
-6.61772e-10
-6.29577e-10
-5.95944e-10
-5.7908e-10
-5.74301e-10
-5.71012e-10
-5.64742e-10
-5.55533e-10
-5.40841e-10
-5.18595e-10
-3.799e-10
-2.98687e-10
1.92846e-10
2.64176e-10
1.6904e-10
-5.93253e-11
-1.04146e-09
-1.25027e-09
-8.5249e-10
-7.06927e-10
-7.08098e-10
-6.79156e-10
-6.45756e-10
-6.28067e-10
-6.20702e-10
-6.11876e-10
-5.9652e-10
-5.74283e-10
-5.42839e-10
-5.0275e-10
-3.48244e-10
-2.558e-10
2.41867e-10
3.22139e-10
2.38215e-10
-4.81323e-12
-1.00355e-09
-1.24528e-09
-8.73397e-10
-7.44862e-10
-7.6001e-10
-7.40619e-10
-7.11598e-10
-6.93475e-10
-6.81349e-10
-6.63638e-10
-6.35296e-10
-5.96228e-10
-5.45061e-10
-4.83918e-10
-3.04399e-10
-1.85052e-10
3.31248e-10
4.14284e-10
6.93291e-10
3.32745e-10
-7.92613e-10
-1.13704e-09
-8.49826e-10
-7.89564e-10
-8.58823e-10
-8.78772e-10
-8.759e-10
-8.73445e-10
-8.68635e-10
-8.50945e-10
-8.15572e-10
-7.6266e-10
-6.92971e-10
-6.08125e-10
-3.8481e-10
-1.72042e-10
5.04817e-10
7.9517e-10
6.47443e-10
3.42923e-10
-7.31e-10
-1.06446e-09
-8.18568e-10
-7.82747e-10
-8.65556e-10
-8.94408e-10
-8.96682e-10
-8.96187e-10
-8.90537e-10
-8.6948e-10
-8.28341e-10
-7.6747e-10
-6.8816e-10
-5.92976e-10
-3.65647e-10
-1.54477e-10
4.94327e-10
7.39381e-10
2.93613e-10
4.21486e-11
-9.08458e-10
-1.12399e-09
-8.51111e-10
-7.92027e-10
-8.44908e-10
-8.44968e-10
-8.22609e-10
-8.01683e-10
-7.78834e-10
-7.43036e-10
-6.89339e-10
-6.17884e-10
-5.2807e-10
-4.25171e-10
-2.16769e-10
-7.49472e-11
4.06134e-10
4.40644e-10
2.84024e-10
2.40465e-11
-8.93563e-10
-1.07226e-09
-8.37355e-10
-8.04266e-10
-8.66461e-10
-8.68165e-10
-8.43468e-10
-8.18117e-10
-7.89686e-10
-7.47631e-10
-6.87247e-10
-6.08928e-10
-5.11892e-10
-4.02509e-10
-1.98497e-10
-5.69211e-11
4.02377e-10
4.13069e-10
2.54607e-10
-4.14529e-12
-8.6733e-10
-1.00322e-09
-7.97381e-10
-7.79265e-10
-8.45359e-10
-8.50602e-10
-8.31096e-10
-8.1263e-10
-7.9121e-10
-7.54831e-10
-6.97631e-10
-6.20334e-10
-5.21611e-10
-4.10865e-10
-2.1346e-10
-6.89748e-11
3.68857e-10
3.63276e-10
-2.18356e-11
-3.11215e-10
-1.12372e-09
-1.20992e-09
-9.95718e-10
-9.34792e-10
-9.20871e-10
-8.27575e-10
-7.13409e-10
-6.33582e-10
-5.76989e-10
-5.16699e-10
-4.44264e-10
-3.67946e-10
-2.88738e-10
-2.19206e-10
-1.01776e-10
-6.23945e-11
2.41411e-10
1.35695e-10
2.50602e-10
1.4425e-10
-5.27273e-10
-6.19064e-10
-5.54523e-10
-6.71304e-10
-8.41724e-10
-8.9754e-10
-8.75955e-10
-8.18208e-10
-7.46864e-10
-7.03395e-10
-6.69763e-10
-6.47324e-10
-6.30033e-10
-5.98e-10
-4.71185e-10
-3.29289e-10
1.24362e-10
1.9769e-10
-2.30155e-11
-3.15833e-10
-7.831e-10
-8.30882e-10
-5.2218e-10
-3.92282e-10
-1.92216e-10
-3.688e-10
-5.16862e-10
-7.26083e-10
-1.41164e-09
-1.48528e-09
-1.23375e-09
-1.05341e-09
-8.24632e-10
-5.67466e-10
-2.03034e-11
1.99735e-10
5.84849e-10
5.99051e-10
-2.12012e-10
-2.65032e-10
-7.63037e-10
-8.04671e-10
-6.73433e-10
-6.7859e-10
-7.13887e-10
-6.87403e-10
-6.29051e-10
-5.5738e-10
-4.73858e-10
-4.00858e-10
-3.75763e-10
-3.91781e-10
-4.24632e-10
-4.55944e-10
-4.36825e-10
-4.46168e-10
-2.35529e-10
-2.49665e-10
-3.5876e-10
-4.26738e-10
-8.99526e-10
-9.09465e-10
-7.01442e-10
-6.22487e-10
-5.94001e-10
-5.32292e-10
-4.78571e-10
-4.58401e-10
-4.58687e-10
-4.53227e-10
-4.38971e-10
-4.22157e-10
-4.08059e-10
-4.03048e-10
-3.66922e-10
-3.96124e-10
-2.34757e-10
-3.15975e-10
-3.46483e-10
-3.52414e-10
-7.67423e-10
-8.07019e-10
-6.07663e-10
-5.38324e-10
-5.32209e-10
-5.04742e-10
-4.78576e-10
-4.6665e-10
-4.65445e-10
-4.68175e-10
-4.72303e-10
-4.78307e-10
-4.86245e-10
-4.98999e-10
-4.71147e-10
-4.89664e-10
-3.13491e-10
-3.36807e-10
-2.9925e-10
-3.69564e-10
-7.66276e-10
-8.30451e-10
-6.3305e-10
-5.61632e-10
-5.42861e-10
-5.07715e-10
-4.79382e-10
-4.64701e-10
-4.60256e-10
-4.61282e-10
-4.65733e-10
-4.73455e-10
-4.84063e-10
-4.94322e-10
-4.77679e-10
-4.68528e-10
-3.3622e-10
-3.13107e-10
-3.12936e-10
-3.39924e-10
-7.42054e-10
-8.77235e-10
-6.76127e-10
-5.95383e-10
-5.74959e-10
-5.35796e-10
-5.02001e-10
-4.82978e-10
-4.74736e-10
-4.71586e-10
-4.71096e-10
-4.73036e-10
-4.76979e-10
-4.83024e-10
-4.45657e-10
-4.41863e-10
-2.68875e-10
-2.4467e-10
-3.24642e-10
-3.18536e-10
-6.89001e-10
-8.96304e-10
-6.97826e-10
-6.00115e-10
-5.74524e-10
-5.37112e-10
-5.0687e-10
-4.90386e-10
-4.83928e-10
-4.82122e-10
-4.82544e-10
-4.85016e-10
-4.88737e-10
-4.96029e-10
-4.48165e-10
-4.4211e-10
-2.54175e-10
-2.02604e-10
-3.14305e-10
-3.06986e-10
-6.5086e-10
-9.02285e-10
-7.13467e-10
-6.14016e-10
-5.86816e-10
-5.48805e-10
-5.18447e-10
-5.02242e-10
-4.95967e-10
-4.93848e-10
-4.93307e-10
-4.94033e-10
-4.95262e-10
-4.99156e-10
-4.44682e-10
-4.27226e-10
-2.4181e-10
-1.66164e-10
-3.16172e-10
-3.05515e-10
-6.20519e-10
-8.99889e-10
-7.21964e-10
-6.21994e-10
-5.92803e-10
-5.54289e-10
-5.23665e-10
-5.07267e-10
-5.00787e-10
-4.98377e-10
-4.97404e-10
-4.97576e-10
-4.979e-10
-5.00622e-10
-4.44909e-10
-4.22361e-10
-2.46653e-10
-1.54866e-10
-3.21713e-10
-3.0734e-10
-5.9556e-10
-8.89989e-10
-7.22714e-10
-6.24213e-10
-5.94024e-10
-5.55333e-10
-5.24821e-10
-5.08423e-10
-5.01803e-10
-4.99196e-10
-4.97936e-10
-4.9767e-10
-4.9756e-10
-5.00186e-10
-4.45821e-10
-4.21194e-10
-2.56927e-10
-1.55316e-10
-3.21187e-10
-3.06082e-10
-5.74244e-10
-8.77264e-10
-7.22616e-10
-6.28632e-10
-5.99392e-10
-5.61419e-10
-5.30945e-10
-5.13777e-10
-5.05806e-10
-5.01519e-10
-4.98353e-10
-4.96022e-10
-4.93916e-10
-4.94925e-10
-4.41029e-10
-4.14564e-10
-2.60297e-10
-1.53548e-10
-3.42365e-10
-3.24865e-10
-5.70314e-10
-8.45871e-10
-7.0132e-10
-6.11735e-10
-5.82951e-10
-5.46257e-10
-5.179e-10
-5.03092e-10
-4.97616e-10
-4.9606e-10
-4.9591e-10
-4.96818e-10
-4.97684e-10
-5.01094e-10
-4.51368e-10
-4.28949e-10
-2.82733e-10
-1.85404e-10
-3.46439e-10
-3.30945e-10
-5.68009e-10
-8.37891e-10
-7.01728e-10
-6.14669e-10
-5.85219e-10
-5.48434e-10
-5.20197e-10
-5.04858e-10
-4.98277e-10
-4.95391e-10
-4.93886e-10
-4.93471e-10
-4.93363e-10
-4.96203e-10
-4.48112e-10
-4.26736e-10
-2.87333e-10
-1.93945e-10
-3.47181e-10
-3.28375e-10
-5.53438e-10
-8.32692e-10
-6.97539e-10
-6.13347e-10
-5.86115e-10
-5.51081e-10
-5.23845e-10
-5.08847e-10
-5.02112e-10
-4.98737e-10
-4.96502e-10
-4.95147e-10
-4.94102e-10
-4.96182e-10
-4.49494e-10
-4.26533e-10
-2.95087e-10
-1.94459e-10
-3.58112e-10
-3.40346e-10
-5.588e-10
-8.20095e-10
-6.87481e-10
-6.05547e-10
-5.7914e-10
-5.45813e-10
-5.20071e-10
-5.06172e-10
-5.00341e-10
-4.97851e-10
-4.96545e-10
-4.96141e-10
-4.96022e-10
-4.98743e-10
-4.54486e-10
-4.33766e-10
-3.06554e-10
-2.13072e-10
-3.65006e-10
-3.4992e-10
-5.66186e-10
-8.07201e-10
-6.77915e-10
-5.99942e-10
-5.756e-10
-5.44527e-10
-5.20389e-10
-5.07284e-10
-5.01712e-10
-4.99238e-10
-4.9783e-10
-4.97251e-10
-4.9688e-10
-4.9902e-10
-4.56044e-10
-4.3709e-10
-3.12285e-10
-2.28369e-10
-3.70425e-10
-3.58458e-10
-5.75086e-10
-7.92086e-10
-6.65607e-10
-5.92021e-10
-5.70275e-10
-5.41988e-10
-5.19784e-10
-5.07692e-10
-5.02534e-10
-5.00172e-10
-4.98725e-10
-4.97973e-10
-4.97264e-10
-4.98668e-10
-4.56907e-10
-4.39974e-10
-3.16462e-10
-2.44046e-10
-3.76188e-10
-3.67659e-10
-5.86057e-10
-7.75104e-10
-6.51246e-10
-5.82457e-10
-5.63614e-10
-5.38379e-10
-5.18193e-10
-5.0712e-10
-5.02386e-10
-5.00172e-10
-4.98746e-10
-4.97847e-10
-4.96891e-10
-4.97685e-10
-4.57596e-10
-4.4332e-10
-3.21067e-10
-2.62242e-10
-3.81108e-10
-3.76058e-10
-5.96345e-10
-7.54102e-10
-6.33861e-10
-5.70993e-10
-5.55686e-10
-5.33859e-10
-5.15855e-10
-5.05906e-10
-5.01659e-10
-4.99622e-10
-4.9817e-10
-4.97145e-10
-4.96008e-10
-4.96213e-10
-4.58357e-10
-4.47143e-10
-3.26687e-10
-2.82695e-10
-3.87289e-10
-3.85325e-10
-6.05402e-10
-7.29131e-10
-6.1437e-10
-5.58663e-10
-5.47305e-10
-5.29005e-10
-5.13225e-10
-5.04417e-10
-5.00641e-10
-4.98817e-10
-4.9749e-10
-4.96459e-10
-4.95212e-10
-4.95049e-10
-4.60506e-10
-4.53058e-10
-3.36404e-10
-3.07913e-10
-3.97114e-10
-3.97256e-10
-6.12677e-10
-7.00302e-10
-5.93419e-10
-5.46138e-10
-5.38946e-10
-5.24167e-10
-5.1059e-10
-5.02948e-10
-4.9985e-10
-4.98458e-10
-4.974e-10
-4.96612e-10
-4.95663e-10
-4.95735e-10
-4.66027e-10
-4.62953e-10
-3.5332e-10
-3.40439e-10
-4.09585e-10
-4.1053e-10
-6.14666e-10
-6.65879e-10
-5.69641e-10
-5.32173e-10
-5.3024e-10
-5.20345e-10
-5.09658e-10
-5.03126e-10
-4.9999e-10
-4.98066e-10
-4.96443e-10
-4.95336e-10
-4.94746e-10
-4.95902e-10
-4.73104e-10
-4.75653e-10
-3.76943e-10
-3.78091e-10
-4.20598e-10
-4.2684e-10
-6.18022e-10
-6.37253e-10
-5.51802e-10
-5.22348e-10
-5.22511e-10
-5.1092e-10
-4.9865e-10
-4.9259e-10
-4.92297e-10
-4.9468e-10
-4.97543e-10
-4.9942e-10
-5.00275e-10
-5.01364e-10
-4.8235e-10
-4.84899e-10
-3.96475e-10
-4.10311e-10
-4.48093e-10
-4.77905e-10
-6.20556e-10
-4.5036e-10
-3.87933e-10
-4.3486e-10
-4.84451e-10
-6.50523e-10
-6.31512e-10
-5.56028e-10
-5.35842e-10
-5.23096e-10
-5.18594e-10
-4.33883e-10
-4.50349e-10
-4.4119e-10
-4.41925e-10
-6.0482e-10
-4.55482e-10
-4.02e-10
-4.29775e-10
-4.47206e-10
-6.01912e-10
-5.69335e-10
-5.17493e-10
-5.0934e-10
-5.14216e-10
-5.04984e-10
-4.9413e-10
-4.89793e-10
-4.91013e-10
-4.94435e-10
-4.98064e-10
-5.01022e-10
-5.01321e-10
-5.001e-10
-4.86992e-10
-4.90742e-10
-4.29608e-10
-4.57503e-10
-4.41428e-10
-4.6285e-10
-5.93459e-10
-5.35516e-10
-4.96153e-10
-4.99892e-10
-5.11521e-10
-5.07522e-10
-5.01004e-10
-4.9764e-10
-4.96495e-10
-4.95733e-10
-4.94957e-10
-4.94527e-10
-4.94558e-10
-4.96044e-10
-4.90426e-10
-4.99059e-10
-4.51565e-10
-4.82826e-10
-4.45199e-10
-4.79655e-10
-5.90499e-10
-5.14673e-10
-4.87414e-10
-4.99736e-10
-5.12804e-10
-5.07736e-10
-5.00783e-10
-4.97792e-10
-4.973e-10
-4.9725e-10
-4.97119e-10
-4.97042e-10
-4.96955e-10
-4.97451e-10
-4.93049e-10
-4.98771e-10
-4.6194e-10
-4.92931e-10
-4.50346e-10
-5.06495e-10
-5.77922e-10
-4.87275e-10
-4.75306e-10
-4.97905e-10
-5.12534e-10
-5.08292e-10
-5.02303e-10
-4.99672e-10
-4.99165e-10
-4.9911e-10
-4.99009e-10
-4.98899e-10
-4.9884e-10
-4.98751e-10
-4.97202e-10
-4.97749e-10
-4.784e-10
-4.96876e-10
-4.60961e-10
-5.1333e-10
-5.8298e-10
-4.73394e-10
-4.68857e-10
-4.98801e-10
-5.13991e-10
-5.07243e-10
-5.00247e-10
-4.98207e-10
-4.98343e-10
-4.98405e-10
-4.98214e-10
-4.98082e-10
-4.97943e-10
-4.98332e-10
-4.96187e-10
-5.0107e-10
-4.79906e-10
-5.10787e-10
-4.74519e-10
-5.48e-10
-5.60683e-10
-4.39138e-10
-4.50546e-10
-4.90739e-10
-5.10161e-10
-5.0627e-10
-5.00224e-10
-4.97976e-10
-4.97897e-10
-4.98075e-10
-4.9805e-10
-4.97956e-10
-4.97889e-10
-4.97848e-10
-4.97595e-10
-4.98004e-10
-4.92427e-10
-5.05989e-10
-4.76152e-10
-5.61827e-10
-5.74293e-10
-4.27821e-10
-4.44471e-10
-4.95944e-10
-5.13829e-10
-5.04403e-10
-4.96617e-10
-4.95764e-10
-4.96793e-10
-4.97068e-10
-4.96864e-10
-4.9675e-10
-4.9675e-10
-4.9696e-10
-4.96503e-10
-4.98215e-10
-4.92549e-10
-5.10069e-10
-4.87021e-10
-5.86944e-10
-5.67217e-10
-4.12886e-10
-4.3627e-10
-4.9436e-10
-5.15287e-10
-5.05993e-10
-4.9769e-10
-4.96376e-10
-4.9734e-10
-4.97799e-10
-4.97727e-10
-4.9762e-10
-4.97626e-10
-4.97696e-10
-4.97667e-10
-4.97981e-10
-4.96808e-10
-5.02996e-10
-4.96888e-10
-5.96292e-10
-5.54373e-10
-4.04734e-10
-4.3125e-10
-4.87341e-10
-5.11355e-10
-5.06938e-10
-4.99955e-10
-4.97705e-10
-4.9802e-10
-4.98462e-10
-4.985e-10
-4.98384e-10
-4.98301e-10
-4.98266e-10
-4.9824e-10
-4.98217e-10
-4.98166e-10
-4.98703e-10
-4.97644e-10
-5.96504e-10
-5.52925e-10
-4.04004e-10
-4.30707e-10
-4.86465e-10
-5.10734e-10
-5.06755e-10
-4.99907e-10
-4.97609e-10
-4.97871e-10
-4.98313e-10
-4.98377e-10
-4.98288e-10
-4.9822e-10
-4.98194e-10
-4.98185e-10
-4.98174e-10
-4.98156e-10
-4.9842e-10
-4.94766e-10
-5.91814e-10
-5.52198e-10
-4.05448e-10
-4.32436e-10
-4.87902e-10
-5.11747e-10
-5.07608e-10
-5.00785e-10
-4.98521e-10
-4.98798e-10
-4.99249e-10
-4.9933e-10
-4.99263e-10
-4.99221e-10
-4.99221e-10
-4.99238e-10
-4.99249e-10
-4.99256e-10
-4.99494e-10
)
;

boundaryField
{
    top
    {
        type            symmetryPlane;
    }
    bottom
    {
        type            zeroGradient;
    }
    inlet
    {
        type            cyclic;
    }
    outlet
    {
        type            cyclic;
    }
    frontAndBack
    {
        type            empty;
    }
}


// ************************************************************************* //
