/*--------------------------------*- C++ -*----------------------------------*\
| =========                 |                                                 |
| \\      /  F ield         | OpenFOAM: The Open Source CFD Toolbox           |
|  \\    /   O peration     | Version:  v1906                                 |
|   \\  /    A nd           | Web:      www.OpenFOAM.com                      |
|    \\/     M anipulation  |                                                 |
\*---------------------------------------------------------------------------*/
FoamFile
{
    version     2.0;
    format      ascii;
    class       surfaceScalarField;
    location    "19.44";
    object      phi;
}
// * * * * * * * * * * * * * * * * * * * * * * * * * * * * * * * * * * * * * //

dimensions      [0 3 -1 0 0 0 0];
oriented        oriented;


internalField   nonuniform List<scalar> 
2671
(
1.26298e-05
3.1764e-15
1.26298e-05
2.52214e-15
1.26298e-05
1.99704e-15
1.26298e-05
1.52573e-15
1.26298e-05
1.19563e-15
1.26298e-05
9.32424e-16
1.26298e-05
7.09461e-16
1.26298e-05
5.17342e-16
1.26298e-05
3.42916e-16
1.26298e-05
1.72631e-16
1.26298e-05
-6.70907e-18
1.26298e-05
-1.77773e-16
1.26298e-05
-3.65057e-16
1.26298e-05
-5.85111e-16
1.26298e-05
-8.63899e-16
1.26298e-05
-1.18989e-15
1.26298e-05
-1.67632e-15
1.26298e-05
-2.28405e-15
1.26298e-05
-4.01628e-15
-1.92661e-15
1.38184e-05
9.51453e-16
1.38184e-05
7.6429e-16
1.38184e-05
7.53776e-16
1.38184e-05
7.47609e-16
1.38184e-05
7.25553e-16
1.38184e-05
7.02072e-16
1.38184e-05
6.56349e-16
1.38184e-05
5.93958e-16
1.38184e-05
5.14937e-16
1.38184e-05
4.07425e-16
1.38184e-05
2.73845e-16
1.38184e-05
1.24784e-16
1.38184e-05
-3.81627e-17
1.38184e-05
-2.17907e-16
1.38184e-05
-4.03259e-16
1.38184e-05
-5.91862e-16
1.38184e-05
-7.89914e-16
1.38184e-05
-1.07508e-15
1.38184e-05
-2.49643e-15
-1.60344e-15
1.56473e-05
-9.4694e-16
1.56473e-05
-6.90242e-16
1.56473e-05
-8.01091e-17
1.56473e-05
2.85098e-16
1.56473e-05
4.98157e-16
1.56473e-05
7.02968e-16
1.56473e-05
8.17423e-16
1.56473e-05
8.62691e-16
1.56473e-05
8.52352e-16
1.56473e-05
7.86731e-16
1.56473e-05
6.78754e-16
1.56473e-05
5.38896e-16
1.56473e-05
3.77086e-16
1.56473e-05
2.02161e-16
1.56473e-05
2.52757e-17
1.56473e-05
-1.49528e-16
1.56473e-05
-3.23628e-16
1.56473e-05
-6.34673e-16
1.56473e-05
-1.84977e-15
-1.9527e-15
1.69085e-05
-1.95412e-15
1.69085e-05
-1.58842e-15
1.69085e-05
-7.21494e-16
1.69085e-05
-1.4328e-16
1.69085e-05
2.0797e-16
1.69085e-05
5.7904e-16
1.69085e-05
8.47027e-16
1.69085e-05
1.01129e-15
1.69085e-05
1.08655e-15
1.69085e-05
1.08798e-15
1.69085e-05
1.02973e-15
1.69085e-05
9.21607e-16
1.69085e-05
7.74043e-16
1.69085e-05
5.97008e-16
1.69085e-05
3.98347e-16
1.69085e-05
1.7887e-16
1.69085e-05
-8.57901e-17
1.69085e-05
-5.22595e-16
1.69085e-05
-1.52052e-15
-2.18323e-15
1.78726e-05
-2.28879e-15
1.78726e-05
-1.96154e-15
1.78726e-05
-1.01675e-15
1.78726e-05
-3.37585e-16
1.78726e-05
1.03677e-16
1.78726e-05
5.66612e-16
1.78726e-05
9.15605e-16
1.78726e-05
1.14893e-15
1.78726e-05
1.27722e-15
1.78726e-05
1.30766e-15
1.78726e-05
1.26483e-15
1.78726e-05
1.16224e-15
1.78726e-05
9.99601e-16
1.78726e-05
7.8586e-16
1.78726e-05
5.25497e-16
1.78726e-05
2.14417e-16
1.78726e-05
-1.83611e-16
1.78726e-05
-7.30024e-16
1.78726e-05
-1.52828e-15
-2.22556e-15
1.86552e-05
-2.15023e-15
1.86552e-05
-1.84928e-15
1.86552e-05
-9.51588e-16
1.86552e-05
-2.68828e-16
1.86552e-05
1.84477e-16
1.86552e-05
6.50609e-16
1.86552e-05
9.97034e-16
1.86552e-05
1.2269e-15
1.86552e-05
1.34873e-15
1.86552e-05
1.36284e-15
1.86552e-05
1.30139e-15
1.86552e-05
1.18032e-15
1.86552e-05
9.85741e-16
1.86552e-05
7.2603e-16
1.86552e-05
4.00396e-16
1.86552e-05
7.66827e-19
1.86552e-05
-4.98545e-16
1.86552e-05
-1.0744e-15
1.86552e-05
-1.58601e-15
-1.98634e-15
1.93155e-05
-1.60623e-15
1.93155e-05
-1.29036e-15
1.93155e-05
-5.69128e-16
1.93155e-05
3.75203e-17
1.93155e-05
4.29394e-16
1.93155e-05
8.11949e-16
1.93155e-05
1.0708e-15
1.93155e-05
1.21633e-15
1.93155e-05
1.26237e-15
1.93155e-05
1.21802e-15
1.93155e-05
1.10884e-15
1.93155e-05
9.45862e-16
1.93155e-05
7.18302e-16
1.93155e-05
4.26676e-16
1.93155e-05
6.29601e-17
1.93155e-05
-3.84637e-16
1.93155e-05
-9.27304e-16
1.93155e-05
-1.42662e-15
1.93155e-05
-1.557e-15
-1.54774e-15
1.98881e-05
-6.24161e-16
1.98881e-05
-3.26512e-16
1.98881e-05
1.51072e-16
1.98881e-05
5.85943e-16
1.98881e-05
8.35149e-16
1.98881e-05
1.0249e-15
1.98881e-05
1.09177e-15
1.98881e-05
1.06508e-15
1.98881e-05
9.57673e-16
1.98881e-05
7.89153e-16
1.98881e-05
5.84702e-16
1.98881e-05
3.60981e-16
1.98881e-05
1.1719e-16
1.98881e-05
-1.53615e-16
1.98881e-05
-4.79361e-16
1.98881e-05
-8.87299e-16
1.98881e-05
-1.37342e-15
1.98881e-05
-1.62562e-15
1.98881e-05
-1.31347e-15
-7.80142e-16
2.03946e-05
9.59175e-16
2.03946e-05
1.11718e-15
2.03946e-05
1.2576e-15
2.03946e-05
1.33158e-15
2.03946e-05
1.28362e-15
2.03946e-05
1.14029e-15
2.03946e-05
8.90958e-16
2.03946e-05
5.71884e-16
2.03946e-05
2.06045e-16
2.03946e-05
-1.69683e-16
2.03946e-05
-4.9591e-16
2.03946e-05
-7.5111e-16
2.03946e-05
-9.12918e-16
2.03946e-05
-9.96149e-16
2.03946e-05
-1.09496e-15
2.03946e-05
-1.29817e-15
2.03946e-05
-1.54281e-15
2.03946e-05
-1.43749e-15
2.03946e-05
-6.01891e-16
5.42774e-16
2.08495e-05
3.00786e-15
2.08495e-05
2.8584e-15
2.08495e-05
2.22169e-15
2.08495e-05
1.71176e-15
2.08495e-05
1.32005e-15
2.08495e-05
9.03557e-16
2.08495e-05
3.28403e-16
2.08495e-05
-3.87958e-16
2.08495e-05
-1.13518e-15
2.08495e-05
-1.89019e-15
2.08495e-05
-2.22694e-15
2.08495e-05
-2.39332e-15
2.08495e-05
-2.35661e-15
2.08495e-05
-1.77092e-15
2.08495e-05
-1.25831e-15
2.08495e-05
-1.02629e-15
2.08495e-05
-9.28573e-16
2.08495e-05
-5.05451e-16
2.08495e-05
8.93935e-16
2.6341e-15
2.1263e-05
2.59302e-15
2.1263e-05
2.62022e-15
2.1263e-05
1.75747e-15
2.1263e-05
1.48428e-15
2.1263e-05
1.09976e-15
2.1263e-05
6.47199e-16
2.1263e-05
1.18597e-17
2.1263e-05
-8.68311e-16
2.1263e-05
-1.48154e-15
2.1263e-05
-1.69857e-15
2.1263e-05
-1.01702e-15
2.1263e-05
-9.65707e-16
2.1263e-05
-1.2542e-15
2.1263e-05
-6.08623e-16
2.1263e-05
-4.85471e-16
2.1263e-05
-7.48354e-16
2.1263e-05
-1.17633e-15
2.1263e-05
-1.21999e-15
2.1263e-05
-2.25408e-16
1.53571e-15
2.16426e-05
-1.84179e-15
2.16426e-05
-6.35154e-16
2.16426e-05
5.64621e-16
2.16426e-05
1.3512e-15
2.16426e-05
1.86846e-15
2.16426e-05
2.10952e-15
2.16426e-05
2.23894e-15
2.16426e-05
2.40662e-15
2.16426e-05
2.77257e-15
2.16426e-05
3.84179e-15
2.16426e-05
4.77653e-15
2.16426e-05
4.191e-15
2.16426e-05
2.57807e-15
2.16426e-05
2.85685e-16
2.16426e-05
-1.91201e-15
2.16426e-05
-3.59641e-15
2.16426e-05
-5.17554e-15
2.16426e-05
-6.12432e-15
2.16426e-05
-5.72373e-15
-3.97603e-15
2.19949e-05
-1.80035e-15
2.19949e-05
-1.07716e-15
2.19949e-05
-1.02736e-17
2.19949e-05
6.74452e-16
2.19949e-05
1.02988e-15
2.19949e-05
1.30472e-15
2.19949e-05
1.60568e-15
2.19949e-05
1.99458e-15
2.19949e-05
2.52801e-15
2.19949e-05
3.30795e-15
2.19949e-05
3.8818e-15
2.19949e-05
3.77156e-15
2.19949e-05
2.91224e-15
2.19949e-05
1.20076e-15
2.19949e-05
-7.45462e-16
2.19949e-05
-2.61665e-15
2.19949e-05
-4.36117e-15
2.19949e-05
-5.4692e-15
2.19949e-05
-4.87876e-15
-3.25261e-15
2.23255e-05
1.54585e-16
2.23255e-05
6.68196e-16
2.23255e-05
9.67774e-16
2.23255e-05
1.20622e-15
2.23255e-05
1.32548e-15
2.23255e-05
1.35581e-15
2.23255e-05
1.37368e-15
2.23255e-05
1.40872e-15
2.23255e-05
1.48303e-15
2.23255e-05
1.60187e-15
2.23255e-05
1.69661e-15
2.23255e-05
1.55792e-15
2.23255e-05
1.01391e-15
2.23255e-05
7.3348e-17
2.23255e-05
-1.09944e-15
2.23255e-05
-2.38118e-15
2.23255e-05
-3.66878e-15
2.23255e-05
-4.33204e-15
2.23255e-05
-3.2708e-15
-1.13491e-15
2.26378e-05
1.58667e-15
2.26378e-05
1.91031e-15
2.26378e-05
1.90522e-15
2.26378e-05
1.89688e-15
2.26378e-05
1.84506e-15
2.26378e-05
1.70455e-15
2.26378e-05
1.53737e-15
2.26378e-05
1.33374e-15
2.26378e-05
1.1127e-15
2.26378e-05
8.78613e-16
2.26378e-05
6.06905e-16
2.26378e-05
2.34046e-16
2.26378e-05
-3.02563e-16
2.26378e-05
-1.01816e-15
2.26378e-05
-1.88458e-15
2.26378e-05
-2.87411e-15
2.26378e-05
-3.85081e-15
2.26378e-05
-4.11787e-15
2.26378e-05
-2.59815e-15
9.41725e-17
2.29338e-05
2.58139e-15
2.29338e-05
2.88276e-15
2.29338e-05
2.69628e-15
2.29338e-05
2.50608e-15
2.29338e-05
2.31307e-15
2.29338e-05
2.0169e-15
2.29338e-05
1.69155e-15
2.29338e-05
1.3236e-15
2.29338e-05
9.24406e-16
2.29338e-05
4.96146e-16
2.29338e-05
3.04114e-17
2.29338e-05
-4.92842e-16
2.29338e-05
-1.09685e-15
2.29338e-05
-1.79341e-15
2.29338e-05
-2.58521e-15
2.29338e-05
-3.46223e-15
2.29338e-05
-4.23e-15
2.29338e-05
-4.23053e-15
2.29338e-05
-2.38383e-15
8.12297e-16
2.32152e-05
3.38798e-15
2.32152e-05
3.70565e-15
2.32152e-05
3.36821e-15
2.32152e-05
3.02587e-15
2.32152e-05
2.71298e-15
2.32152e-05
2.27862e-15
2.32152e-05
1.8103e-15
2.32152e-05
1.30762e-15
2.32152e-05
7.77181e-16
2.32152e-05
2.20714e-16
2.32152e-05
-3.65456e-16
2.32152e-05
-9.89038e-16
2.32152e-05
-1.65799e-15
2.32152e-05
-2.37698e-15
2.32152e-05
-3.1578e-15
2.32152e-05
-3.99747e-15
2.32152e-05
-4.64109e-15
2.32152e-05
-4.44759e-15
2.32152e-05
-2.30908e-15
1.34738e-15
2.34833e-05
4.14001e-15
2.34833e-05
4.47151e-15
2.34833e-05
3.99338e-15
2.34833e-05
3.50835e-15
2.34833e-05
3.0852e-15
2.34833e-05
2.51506e-15
2.34833e-05
1.90881e-15
2.34833e-05
1.27987e-15
2.34833e-05
6.33939e-16
2.34833e-05
-2.74414e-17
2.34833e-05
-7.06389e-16
2.34833e-05
-1.40662e-15
2.34833e-05
-2.13025e-15
2.34833e-05
-2.87778e-15
2.34833e-05
-3.66468e-15
2.34833e-05
-4.4936e-15
2.34833e-05
-5.0662e-15
2.34833e-05
-4.71951e-15
2.34833e-05
-2.27557e-15
1.83192e-15
2.37391e-05
4.99478e-15
2.37391e-05
5.21444e-15
2.37391e-05
4.56899e-15
2.37391e-05
3.93402e-15
2.37391e-05
3.39502e-15
2.37391e-05
2.69146e-15
2.37391e-05
1.957e-15
2.37391e-05
1.21301e-15
2.37391e-05
4.65979e-16
2.37391e-05
-2.83057e-16
2.37391e-05
-1.03625e-15
2.37391e-05
-1.79607e-15
2.37391e-05
-2.56242e-15
2.37391e-05
-3.33236e-15
2.37391e-05
-4.123e-15
2.37391e-05
-4.94198e-15
2.37391e-05
-5.47145e-15
2.37391e-05
-5.00614e-15
2.37391e-05
-2.24209e-15
2.36014e-15
2.41158e-05
5.75085e-15
2.41158e-05
5.93364e-15
2.41158e-05
5.11438e-15
2.41158e-05
4.3211e-15
2.41158e-05
3.66326e-15
2.41158e-05
2.82587e-15
2.41158e-05
1.96921e-15
2.41158e-05
1.11888e-15
2.41158e-05
2.82582e-16
2.41158e-05
-5.40883e-16
2.41158e-05
-1.35463e-15
2.41158e-05
-2.16164e-15
2.41158e-05
-2.96053e-15
2.41158e-05
-3.74359e-15
2.41158e-05
-4.53161e-15
2.41158e-05
-5.33605e-15
2.41158e-05
-5.82549e-15
2.41158e-05
-5.24427e-15
2.41158e-05
-2.15813e-15
2.87706e-15
2.55804e-05
6.45418e-15
2.55804e-05
6.46134e-15
2.55804e-05
5.53208e-15
2.55804e-05
4.64047e-15
2.55804e-05
3.9045e-15
2.55804e-05
2.97669e-15
2.55804e-05
2.02593e-15
2.55804e-05
1.08572e-15
2.55804e-05
1.69486e-16
2.55804e-05
-7.22879e-16
2.55804e-05
-1.59416e-15
2.55804e-05
-2.44832e-15
2.55804e-05
-3.28305e-15
2.55804e-05
-4.08685e-15
2.55804e-05
-4.8855e-15
2.55804e-05
-5.69521e-15
2.55804e-05
-6.16433e-15
2.55804e-05
-5.50469e-15
2.55804e-05
-2.16236e-15
3.29699e-15
2.7133e-05
6.65639e-15
2.7133e-05
6.64458e-15
2.7133e-05
5.72732e-15
2.7133e-05
4.80547e-15
2.7133e-05
4.06183e-15
2.7133e-05
3.1321e-15
2.7133e-05
2.16026e-15
2.7133e-05
1.18813e-15
2.7133e-05
2.3113e-16
2.7133e-05
-7.07142e-16
2.7133e-05
-1.62578e-15
2.7133e-05
-2.52791e-15
2.7133e-05
-3.41056e-15
2.7133e-05
-4.26118e-15
2.7133e-05
-5.11043e-15
2.7133e-05
-5.98354e-15
2.7133e-05
-6.48532e-15
2.7133e-05
-5.78803e-15
2.7133e-05
-2.21027e-15
3.50301e-15
2.87783e-05
6.53768e-15
2.87783e-05
6.78414e-15
2.87783e-05
5.8316e-15
2.87783e-05
4.93606e-15
2.87783e-05
4.21648e-15
2.87783e-05
3.2685e-15
2.87783e-05
2.26958e-15
2.87783e-05
1.27276e-15
2.87783e-05
2.90917e-16
2.87783e-05
-6.71106e-16
2.87783e-05
-1.61481e-15
2.87783e-05
-2.54384e-15
2.87783e-05
-3.45604e-15
2.87783e-05
-4.34049e-15
2.87783e-05
-5.23271e-15
2.87783e-05
-6.15694e-15
2.87783e-05
-6.68643e-15
2.87783e-05
-6.01009e-15
2.87783e-05
-2.24347e-15
3.54827e-15
3.05209e-05
7.53326e-15
3.05209e-05
7.42305e-15
3.05209e-05
6.15181e-15
3.05209e-05
5.04349e-15
3.05209e-05
4.151e-15
3.05209e-05
3.05578e-15
3.05209e-05
1.97109e-15
3.05209e-05
9.26452e-16
3.05209e-05
-7.4404e-17
3.05209e-05
-1.03566e-15
3.05209e-05
-1.96147e-15
3.05209e-05
-2.85841e-15
3.05209e-05
-3.72628e-15
3.05209e-05
-4.55331e-15
3.05209e-05
-5.37109e-15
3.05209e-05
-6.1999e-15
3.05209e-05
-6.62474e-15
3.05209e-05
-5.89761e-15
3.05209e-05
-2.05694e-15
4.10397e-15
3.23635e-05
7.38349e-15
3.23635e-05
7.29516e-15
3.23635e-05
6.10033e-15
3.23635e-05
5.07659e-15
3.23635e-05
4.24157e-15
3.23635e-05
3.16641e-15
3.23635e-05
2.07638e-15
3.23635e-05
1.01586e-15
3.23635e-05
-4.59222e-18
3.23635e-05
-9.85751e-16
3.23635e-05
-1.92981e-15
3.23635e-05
-2.84156e-15
3.23635e-05
-3.71987e-15
3.23635e-05
-4.55005e-15
3.23635e-05
-5.36189e-15
3.23635e-05
-6.18714e-15
3.23635e-05
-6.6088e-15
3.23635e-05
-5.89926e-15
3.23635e-05
-2.18076e-15
3.9138e-15
3.43069e-05
7.03881e-15
3.43069e-05
6.93396e-15
3.43069e-05
5.76629e-15
3.43069e-05
4.79802e-15
3.43069e-05
4.02726e-15
3.43069e-05
3.04172e-15
3.43069e-05
2.02733e-15
3.43069e-05
1.02636e-15
3.43069e-05
5.53566e-17
3.43069e-05
-8.84014e-16
3.43069e-05
-1.7921e-15
3.43069e-05
-2.67254e-15
3.43069e-05
-3.52342e-15
3.43069e-05
-4.32862e-15
3.43069e-05
-5.12045e-15
3.43069e-05
-5.93813e-15
3.43069e-05
-6.35791e-15
3.43069e-05
-5.682e-15
3.43069e-05
-2.13482e-15
3.719e-15
3.63505e-05
6.77896e-15
3.63505e-05
6.58442e-15
3.63505e-05
5.43731e-15
3.63505e-05
4.48087e-15
3.63505e-05
3.73285e-15
3.63505e-05
2.78896e-15
3.63505e-05
1.82334e-15
3.63505e-05
8.77872e-16
3.63505e-05
-3.32785e-17
3.63505e-05
-9.09731e-16
3.63505e-05
-1.75305e-15
3.63505e-05
-2.56725e-15
3.63505e-05
-3.35126e-15
3.63505e-05
-4.08927e-15
3.63505e-05
-4.81025e-15
3.63505e-05
-5.55762e-15
3.63505e-05
-5.92822e-15
3.63505e-05
-5.2601e-15
3.63505e-05
-1.89561e-15
3.65115e-15
3.84948e-05
6.02264e-15
3.84948e-05
5.97308e-15
3.84948e-05
4.96733e-15
3.84948e-05
4.06389e-15
3.84948e-05
3.35113e-15
3.84948e-05
2.45276e-15
3.84948e-05
1.54073e-15
3.84948e-05
6.53637e-16
3.84948e-05
-1.97442e-16
3.84948e-05
-1.01243e-15
3.84948e-05
-1.79138e-15
3.84948e-05
-2.5359e-15
3.84948e-05
-3.24446e-15
3.84948e-05
-3.90587e-15
3.84948e-05
-4.52167e-15
3.84948e-05
-5.08072e-15
3.84948e-05
-5.19999e-15
3.84948e-05
-4.29898e-15
3.84948e-05
-9.60673e-16
3.72442e-15
4.07463e-05
5.41449e-15
4.07463e-05
5.23367e-15
4.07463e-05
4.30665e-15
4.07463e-05
3.49548e-15
4.07463e-05
2.84773e-15
4.07463e-05
2.03184e-15
4.07463e-05
1.20879e-15
4.07463e-05
4.10271e-16
4.07463e-05
-3.54804e-16
4.07463e-05
-1.085e-15
4.07463e-05
-1.77861e-15
4.07463e-05
-2.43457e-15
4.07463e-05
-3.05061e-15
4.07463e-05
-3.62108e-15
4.07463e-05
-4.12097e-15
4.07463e-05
-4.48589e-15
4.07463e-05
-4.38058e-15
4.07463e-05
-3.30662e-15
4.07463e-05
-9.74435e-17
3.76735e-15
4.31143e-05
4.80492e-15
4.31143e-05
4.60345e-15
4.31143e-05
3.73288e-15
4.31143e-05
2.985e-15
4.31143e-05
2.40028e-15
4.31143e-05
1.66608e-15
4.31143e-05
9.31278e-16
4.31143e-05
2.28471e-16
4.31143e-05
-4.36585e-16
4.31143e-05
-1.06245e-15
4.31143e-05
-1.64779e-15
4.31143e-05
-2.19213e-15
4.31143e-05
-2.69401e-15
4.31143e-05
-3.15029e-15
4.31143e-05
-3.5353e-15
4.31143e-05
-3.79872e-15
4.31143e-05
-3.68032e-15
4.31143e-05
-2.72664e-15
4.31143e-05
1.13168e-16
3.4588e-15
4.56024e-05
4.0191e-15
4.56024e-05
3.83368e-15
4.56024e-05
3.08254e-15
4.56024e-05
2.44102e-15
4.56024e-05
1.94886e-15
4.56024e-05
1.33542e-15
4.56024e-05
7.22729e-16
4.56024e-05
1.3657e-16
4.56024e-05
-4.18773e-16
4.56024e-05
-9.39035e-16
4.56024e-05
-1.42005e-15
4.56024e-05
-1.86124e-15
4.56024e-05
-2.26183e-15
4.56024e-05
-2.62076e-15
4.56024e-05
-2.9107e-15
4.56024e-05
-3.1012e-15
4.56024e-05
-2.98857e-15
4.56024e-05
-2.18653e-15
4.56024e-05
2.16253e-16
2.97264e-15
4.82094e-05
3.15537e-15
4.82094e-05
3.02914e-15
4.82094e-05
2.43497e-15
4.82094e-05
1.91446e-15
4.82094e-05
1.50707e-15
4.82094e-05
1.00161e-15
4.82094e-05
4.93667e-16
4.82094e-05
1.98505e-18
4.82094e-05
-4.54356e-16
4.82094e-05
-8.59567e-16
4.82094e-05
-1.21263e-15
4.82094e-05
-1.51903e-15
4.82094e-05
-1.79435e-15
4.82094e-05
-2.03826e-15
4.82094e-05
-2.2254e-15
4.82094e-05
-2.33763e-15
4.82094e-05
-2.22663e-15
4.82094e-05
-1.58486e-15
4.82094e-05
3.12225e-16
2.40234e-15
5.09314e-05
1.86393e-15
5.09314e-05
1.94529e-15
5.09314e-05
1.73285e-15
5.09314e-05
1.48044e-15
5.09314e-05
1.23694e-15
5.09314e-05
9.55111e-16
5.09314e-05
5.93018e-16
5.09314e-05
1.41341e-16
5.09314e-05
-3.80928e-16
5.09314e-05
-6.73154e-16
5.09314e-05
-8.00588e-16
5.09314e-05
-8.71023e-16
5.09314e-05
-9.92106e-16
5.09314e-05
-1.17256e-15
5.09314e-05
-1.38158e-15
5.09314e-05
-1.60017e-15
5.09314e-05
-1.74941e-15
5.09314e-05
-1.40607e-15
5.09314e-05
-1.55124e-16
1.23391e-15
5.37619e-05
1.10175e-15
5.37619e-05
1.25861e-15
5.37619e-05
1.19546e-15
5.37619e-05
1.07686e-15
5.37619e-05
8.19046e-16
5.37619e-05
5.94947e-16
5.37619e-05
3.60524e-16
5.37619e-05
1.32898e-16
5.37619e-05
-2.75745e-16
5.37619e-05
-4.37939e-16
5.37619e-05
-3.46074e-16
5.37619e-05
-3.50207e-16
5.37619e-05
-4.87006e-16
5.37619e-05
-6.84188e-16
5.37619e-05
-9.09346e-16
5.37619e-05
-1.11326e-15
5.37619e-05
-1.22616e-15
5.37619e-05
-9.55872e-16
5.37619e-05
-2.63058e-16
5.08918e-16
5.66938e-05
8.02543e-16
5.66938e-05
4.65965e-16
5.66938e-05
1.23135e-16
5.66938e-05
-9.53617e-17
5.66938e-05
-2.16753e-16
5.66938e-05
-2.61715e-16
5.66938e-05
-9.05156e-17
5.66938e-05
2.46282e-17
5.66938e-05
6.21988e-17
5.66938e-05
-1.00362e-16
5.66938e-05
-5.56312e-16
5.66938e-05
-7.62463e-16
5.66938e-05
-8.13746e-16
5.66938e-05
-7.81326e-16
5.66938e-05
-6.18848e-16
5.66938e-05
-3.17957e-16
5.66938e-05
2.53662e-16
5.66938e-05
6.91874e-16
5.66938e-05
1.04758e-15
1.14393e-15
5.97225e-05
3.70873e-16
5.97225e-05
1.677e-16
5.97225e-05
-1.03273e-16
5.97225e-05
-2.45609e-16
5.97225e-05
-3.25527e-16
5.97225e-05
-3.56685e-16
5.97225e-05
-2.949e-16
5.97225e-05
-1.73291e-16
5.97225e-05
-8.24354e-18
5.97225e-05
-1.7782e-17
5.97225e-05
-1.99108e-16
5.97225e-05
-3.04044e-16
5.97225e-05
-3.45328e-16
5.97225e-05
-2.97505e-16
5.97225e-05
-1.68854e-16
5.97225e-05
3.71157e-17
5.97225e-05
3.38074e-16
5.97225e-05
5.88487e-16
5.97225e-05
7.37584e-16
6.00469e-16
6.28488e-05
-8.66116e-17
6.28488e-05
-1.27409e-16
6.28488e-05
-1.60727e-16
6.28488e-05
-1.63704e-16
6.28488e-05
-1.56965e-16
6.28488e-05
-1.37415e-16
6.28488e-05
-1.1385e-16
6.28488e-05
-8.46529e-17
6.28488e-05
-5.45642e-17
6.28488e-05
-3.35205e-17
6.28488e-05
-1.70541e-17
6.28488e-05
5.65743e-18
6.28488e-05
4.00268e-17
6.28488e-05
8.33046e-17
6.28488e-05
1.32533e-16
6.28488e-05
1.84122e-16
6.28488e-05
2.31884e-16
6.28488e-05
2.57528e-16
6.28488e-05
1.8319e-16
1.83985e-17
6.60794e-05
-1.55007e-17
6.60794e-05
-2.35046e-17
6.60794e-05
-9.94802e-17
6.60794e-05
-9.10372e-17
6.60794e-05
-1.39897e-16
6.60794e-05
-1.09927e-16
6.60794e-05
-7.98891e-17
6.60794e-05
-5.0019e-17
6.60794e-05
-2.02226e-17
6.60794e-05
5.23761e-18
6.60794e-05
2.49418e-17
6.60794e-05
4.00273e-17
6.60794e-05
5.08457e-17
6.60794e-05
5.93367e-17
6.60794e-05
6.74826e-17
6.60794e-05
7.61906e-17
6.60794e-05
9.3519e-17
6.60794e-05
7.89717e-17
6.60794e-05
1.14264e-16
1.87675e-17
6.94252e-05
5.44501e-17
6.94252e-05
2.1949e-17
6.94252e-05
-7.6444e-17
6.94252e-05
-2.91735e-17
6.94252e-05
-7.73262e-17
6.94252e-05
-4.69929e-17
6.94252e-05
-1.72921e-17
6.94252e-05
9.43547e-18
6.94252e-05
3.09215e-17
6.94252e-05
4.47799e-17
6.94252e-05
5.07894e-17
6.94252e-05
4.85278e-17
6.94252e-05
3.87174e-17
6.94252e-05
2.24707e-17
6.94252e-05
1.15711e-18
6.94252e-05
-2.33409e-17
6.94252e-05
-3.53809e-17
6.94252e-05
-5.48497e-17
6.94252e-05
2.67149e-17
1.09759e-17
7.28985e-05
4.34296e-17
7.28985e-05
1.0226e-17
7.28985e-05
-3.93846e-17
7.28985e-05
6.78921e-18
7.28985e-05
2.29436e-17
7.28985e-05
3.54759e-17
7.28985e-05
4.1442e-17
7.28985e-05
4.731e-17
7.28985e-05
5.08536e-17
7.28985e-05
4.955e-17
7.28985e-05
4.28151e-17
7.28985e-05
3.01295e-17
7.28985e-05
1.30888e-17
7.28985e-05
-8.69788e-18
7.28985e-05
-3.60089e-17
7.28985e-05
-6.61077e-17
7.28985e-05
-9.57206e-17
7.28985e-05
-1.04249e-16
7.28985e-05
-4.84804e-17
4.68961e-18
7.65121e-05
2.03579e-16
7.65121e-05
1.6564e-16
7.65121e-05
8.93342e-17
7.65121e-05
7.82088e-17
7.65121e-05
6.19761e-17
7.65121e-05
4.10045e-17
7.65121e-05
2.67731e-17
7.65121e-05
1.08095e-17
7.65121e-05
-6.13834e-18
7.65121e-05
-2.36896e-17
7.65121e-05
-4.20313e-17
7.65121e-05
-6.12618e-17
7.65121e-05
-8.15315e-17
7.65121e-05
-1.02583e-16
7.65121e-05
-1.23621e-16
7.65121e-05
-1.40365e-16
7.65121e-05
-1.433e-16
7.65121e-05
-1.113e-16
7.65121e-05
1.11644e-17
1.47422e-16
8.02762e-05
2.82594e-16
8.02762e-05
2.40793e-16
8.02762e-05
1.53822e-16
8.02762e-05
1.14138e-16
8.02762e-05
7.86445e-17
8.02762e-05
3.82823e-17
8.02762e-05
1.0914e-17
8.02762e-05
-1.80187e-17
8.02762e-05
-4.59058e-17
8.02762e-05
-7.14843e-17
8.02762e-05
-9.47798e-17
8.02762e-05
-1.15721e-16
8.02762e-05
-1.34342e-16
8.02762e-05
-1.50005e-16
8.02762e-05
-1.6031e-16
8.02762e-05
-1.62358e-16
8.02762e-05
-1.45731e-16
8.02762e-05
-8.89456e-17
8.02762e-05
5.38938e-17
2.14609e-16
8.41985e-05
3.0144e-16
8.41985e-05
2.62635e-16
8.41985e-05
1.77304e-16
8.41985e-05
1.27699e-16
8.41985e-05
8.49669e-17
8.41985e-05
3.78541e-17
8.41985e-05
3.36223e-18
8.41985e-05
-3.21129e-17
8.41985e-05
-6.48404e-17
8.41985e-05
-9.35099e-17
8.41985e-05
-1.18141e-16
8.41985e-05
-1.38655e-16
8.41985e-05
-1.5491e-16
8.41985e-05
-1.66065e-16
8.41985e-05
-1.68813e-16
8.41985e-05
-1.61339e-16
8.41985e-05
-1.3385e-16
8.41985e-05
-6.60663e-17
8.41985e-05
7.26611e-17
2.30525e-16
8.82863e-05
2.93617e-16
8.82863e-05
2.62716e-16
8.82863e-05
1.85579e-16
8.82863e-05
1.32119e-16
8.82863e-05
8.67056e-17
8.82863e-05
3.75075e-17
8.82863e-05
-3.65865e-20
8.82863e-05
-3.79203e-17
8.82863e-05
-7.22045e-17
8.82863e-05
-1.01596e-16
8.82863e-05
-1.26057e-16
8.82863e-05
-1.45484e-16
8.82863e-05
-1.59581e-16
8.82863e-05
-1.67008e-16
8.82863e-05
-1.65177e-16
8.82863e-05
-1.53132e-16
8.82863e-05
-1.19347e-16
8.82863e-05
-4.97378e-17
8.82863e-05
7.60953e-17
2.23113e-16
9.25466e-05
2.68848e-16
9.25466e-05
2.4442e-16
9.25466e-05
1.78161e-16
9.25466e-05
1.23231e-16
9.25466e-05
7.96174e-17
9.25466e-05
3.3052e-17
9.25466e-05
-3.00326e-18
9.25466e-05
-3.90737e-17
9.25466e-05
-7.14751e-17
9.25466e-05
-9.88897e-17
9.25466e-05
-1.21282e-16
9.25466e-05
-1.38574e-16
9.25466e-05
-1.50399e-16
9.25466e-05
-1.55417e-16
9.25466e-05
-1.51245e-16
9.25466e-05
-1.36918e-16
9.25466e-05
-1.01832e-16
9.25466e-05
-3.56976e-17
9.25466e-05
7.28467e-17
2.03821e-16
9.69866e-05
2.12924e-16
9.69866e-05
1.93588e-16
9.69866e-05
1.43527e-16
9.69866e-05
1.03217e-16
9.69866e-05
6.92158e-17
9.69866e-05
3.18016e-17
9.69866e-05
3.89276e-18
9.69866e-05
-2.49206e-17
9.69866e-05
-5.17254e-17
9.69866e-05
-7.50002e-17
9.69866e-05
-9.46082e-17
9.69866e-05
-1.10419e-16
9.69866e-05
-1.22068e-16
9.69866e-05
-1.28624e-16
9.69866e-05
-1.2695e-16
9.69866e-05
-1.15786e-16
9.69866e-05
-8.70027e-17
9.69866e-05
-3.27472e-17
9.69866e-05
5.33168e-17
1.58575e-16
0.000101614
1.7629e-16
0.000101614
1.59957e-16
0.000101614
1.20069e-16
0.000101614
9.03583e-17
0.000101614
6.21823e-17
0.000101614
3.05114e-17
0.000101614
8.4605e-18
0.000101614
-1.54635e-17
0.000101614
-3.84243e-17
0.000101614
-5.87446e-17
0.000101614
-7.62395e-17
0.000101614
-9.077e-17
0.000101614
-1.02025e-16
0.000101614
-1.09179e-16
0.000101614
-1.09134e-16
0.000101614
-1.00888e-16
0.000101614
-7.74144e-17
0.000101614
-3.2807e-17
0.000101614
3.71952e-17
1.26251e-16
0.000106438
1.62053e-16
0.000106438
1.50748e-16
0.000106438
1.17996e-16
0.000106438
8.70661e-17
0.000106438
5.99329e-17
0.000106438
2.9474e-17
0.000106438
8.54126e-18
0.000106438
-1.43193e-17
0.000106438
-3.61512e-17
0.000106438
-5.53751e-17
0.000106438
-7.18223e-17
0.000106438
-8.53614e-17
0.000106438
-9.57201e-17
0.000106438
-1.02111e-16
0.000106438
-1.01827e-16
0.000106438
-9.38009e-17
0.000106438
-7.19455e-17
0.000106438
-3.10355e-17
0.000106438
3.02068e-17
1.13636e-16
0.000111467
1.42296e-16
0.000111467
1.3508e-16
0.000111467
1.09237e-16
0.000111467
8.00729e-17
0.000111467
5.47538e-17
0.000111467
2.68584e-17
0.000111467
8.03027e-18
0.000111467
-1.27328e-17
0.000111467
-3.26355e-17
0.000111467
-5.01232e-17
0.000111467
-6.50181e-17
0.000111467
-7.7196e-17
0.000111467
-8.64149e-17
0.000111467
-9.1984e-17
0.000111467
-9.13977e-17
0.000111467
-8.38066e-17
0.000111467
-6.37435e-17
0.000111467
-2.67784e-17
0.000111467
2.63953e-17
9.92794e-17
0.000116712
1.20867e-16
0.000116712
1.16303e-16
0.000116712
9.63696e-17
0.000116712
6.97448e-17
0.000116712
4.67088e-17
0.000116712
2.1524e-17
0.000116712
5.01972e-18
0.000116712
-1.32155e-17
0.000116712
-3.06793e-17
0.000116712
-4.58278e-17
0.000116712
-5.84684e-17
0.000116712
-6.84861e-17
0.000116712
-7.56828e-17
0.000116712
-7.9457e-17
0.000116712
-7.76918e-17
0.000116712
-6.97742e-17
0.000116712
-5.10786e-17
0.000116712
-1.8247e-17
0.000116712
2.62996e-17
8.59624e-17
0.000122185
1.01016e-16
0.000122185
9.83271e-17
0.000122185
8.27166e-17
0.000122185
5.76048e-17
0.000122185
3.62284e-17
0.000122185
1.33052e-17
0.000122185
-1.40269e-18
0.000122185
-1.72942e-17
0.000122185
-3.22251e-17
0.000122185
-4.46986e-17
0.000122185
-5.4512e-17
0.000122185
-6.15485e-17
0.000122185
-6.55944e-17
0.000122185
-6.60257e-17
0.000122185
-6.19907e-17
0.000122185
-5.23358e-17
0.000122185
-3.37414e-17
0.000122185
-4.51844e-18
0.000122185
3.10543e-17
7.57628e-17
0.000127897
8.33151e-17
0.000127897
8.17048e-17
0.000127897
6.85543e-17
0.000127897
4.36833e-17
0.000127897
2.31156e-17
0.000127897
1.75086e-18
0.000127897
-1.16101e-17
0.000127897
-2.54169e-17
0.000127897
-3.77691e-17
0.000127897
-4.7241e-17
0.000127897
-5.36324e-17
0.000127897
-5.67233e-17
0.000127897
-5.62158e-17
0.000127897
-5.21633e-17
0.000127897
-4.42236e-17
0.000127897
-3.10764e-17
0.000127897
-1.09903e-17
0.000127897
1.53392e-17
0.000127897
4.09885e-17
6.87516e-17
0.000133864
6.86351e-17
0.000133864
6.74967e-17
0.000133864
5.48082e-17
0.000133864
2.88849e-17
0.000133864
8.19623e-18
0.000133864
-1.25362e-17
0.000133864
-2.49674e-17
0.000133864
-3.70777e-17
0.000133864
-4.69824e-17
0.000133864
-5.33119e-17
0.000133864
-5.57047e-17
0.000133864
-5.4018e-17
0.000133864
-4.84176e-17
0.000133864
-3.90789e-17
0.000133864
-2.5457e-17
0.000133864
-7.15448e-18
0.000133864
1.60522e-17
0.000133864
4.04497e-17
0.000133864
5.5416e-17
6.49205e-17
0.000140103
5.69e-17
0.000140103
5.59021e-17
0.000140103
4.21195e-17
0.000140103
1.43656e-17
0.000140103
-6.98767e-18
0.000140103
-2.76368e-17
0.000140103
-3.95715e-17
0.000140103
-5.02998e-17
0.000140103
-5.79651e-17
0.000140103
-6.10853e-17
0.000140103
-5.92105e-17
0.000140103
-5.29668e-17
0.000140103
-4.24016e-17
0.000140103
-2.72065e-17
0.000140103
-7.36474e-18
0.000140103
1.68223e-17
0.000140103
4.4113e-17
0.000140103
6.74788e-17
0.000140103
7.22376e-17
6.29033e-17
0.000146633
5.01524e-17
0.000146633
4.94765e-17
0.000146633
3.3482e-17
0.000146633
3.69596e-18
0.000146633
-1.85276e-17
0.000146633
-3.87834e-17
0.000146633
-5.13294e-17
0.000146633
-6.08958e-17
0.000146633
-6.65872e-17
0.000146633
-6.65936e-17
0.000146633
-6.15559e-17
0.000146633
-5.26196e-17
0.000146633
-3.87019e-17
0.000146633
-1.94762e-17
0.000146633
4.81269e-18
0.000146633
3.35049e-17
0.000146633
6.44196e-17
0.000146633
8.78671e-17
0.000146633
8.54983e-17
6.23296e-17
0.00015348
7.55346e-17
0.00015348
6.92769e-17
0.00015348
3.53812e-17
0.00015348
-1.38982e-17
0.00015348
-5.02563e-17
0.00015348
-8.13408e-17
0.00015348
-8.52044e-17
0.00015348
-6.84326e-17
0.00015348
-5.58519e-17
0.00015348
-4.36418e-17
0.00015348
-3.51857e-17
0.00015348
-3.11744e-17
0.00015348
-2.8121e-17
0.00015348
-2.54883e-17
0.00015348
-1.34941e-17
0.00015348
8.2847e-18
0.00015348
4.81841e-17
0.00015348
9.96581e-17
0.00015348
1.07471e-16
8.84533e-17
0.000160681
1.03331e-16
0.000160681
1.08472e-16
0.000160681
6.93431e-17
0.000160681
-3.33475e-18
0.000160681
-5.93928e-17
0.000160681
-9.30154e-17
0.000160681
-9.20544e-17
0.000160681
-5.70656e-17
0.000160681
-4.03823e-17
0.000160681
-3.15001e-17
0.000160681
-2.4065e-17
0.000160681
-2.17918e-17
0.000160681
-2.49337e-17
0.000160681
-4.88174e-17
0.000160681
-5.46529e-17
0.000160681
-3.72591e-17
0.000160681
1.26246e-17
0.000160681
9.46828e-17
0.000160681
1.04419e-16
9.55565e-17
0.000168281
5.65533e-17
0.000168281
7.23897e-17
0.000168281
6.87629e-17
0.000168281
6.09997e-17
0.000168281
3.31297e-17
0.000168281
1.08571e-17
0.000168281
-1.01135e-17
0.000168281
-6.03499e-17
0.000168281
-8.15423e-17
0.000168281
-8.92055e-17
0.000168281
-8.69092e-17
0.000168281
-7.34857e-17
0.000168281
-5.66004e-17
0.000168281
-3.35279e-17
0.000168281
-1.83151e-17
0.000168281
1.72676e-17
0.000168281
4.66498e-17
0.000168281
5.05635e-17
0.000168281
4.61479e-17
4.68843e-17
0.000176338
4.23141e-17
0.000176338
5.01837e-17
0.000176338
4.59904e-17
0.000176338
3.66745e-17
0.000176338
3.30344e-17
0.000176338
2.75351e-17
0.000176338
8.4311e-18
0.000176338
-3.01473e-17
0.000176338
-5.86981e-17
0.000176338
-7.89962e-17
0.000176338
-8.38279e-17
0.000176338
-7.60739e-17
0.000176338
-6.0029e-17
0.000176338
-3.15183e-17
0.000176338
-2.29999e-18
0.000176338
2.90598e-17
0.000176338
4.39797e-17
0.000176338
4.20276e-17
0.000176338
3.24064e-17
3.0135e-17
0.000184909
6.42482e-17
0.000184909
6.91333e-17
0.000184909
5.31117e-17
0.000184909
2.8603e-17
0.000184909
1.24495e-17
0.000184909
-2.06573e-18
0.000184909
-1.87932e-17
0.000184909
-2.87887e-17
0.000184909
-3.80687e-17
0.000184909
-4.39591e-17
0.000184909
-4.64635e-17
0.000184909
-4.51585e-17
0.000184909
-4.13163e-17
0.000184909
-3.48893e-17
0.000184909
-2.52536e-17
0.000184909
-1.24878e-17
0.000184909
3.06337e-18
0.000184909
1.97029e-17
0.000184909
3.57257e-17
5.12573e-17
0.000194036
5.25734e-17
0.000194036
5.72873e-17
0.000194036
4.16879e-17
0.000194036
2.87711e-17
0.000194036
1.62545e-17
0.000194036
2.16551e-18
0.000194036
-1.18898e-17
0.000194036
-2.14441e-17
0.000194036
-2.99202e-17
0.000194036
-3.55071e-17
0.000194036
-3.88667e-17
0.000194036
-3.86114e-17
0.000194036
-3.62493e-17
0.000194036
-3.13668e-17
0.000194036
-2.3849e-17
0.000194036
-1.40381e-17
0.000194036
-6.63985e-19
0.000194036
1.15979e-17
0.000194036
3.11543e-17
4.09622e-17
0.000203725
4.91611e-17
0.000203725
5.24319e-17
0.000203725
4.09863e-17
0.000203725
3.02759e-17
0.000203725
1.83868e-17
0.000203725