/*--------------------------------*- C++ -*----------------------------------*\
| =========                 |                                                 |
| \\      /  F ield         | OpenFOAM: The Open Source CFD Toolbox           |
|  \\    /   O peration     | Version:  v1906                                 |
|   \\  /    A nd           | Web:      www.OpenFOAM.com                      |
|    \\/     M anipulation  |                                                 |
\*---------------------------------------------------------------------------*/
FoamFile
{
    version     2.0;
    format      ascii;
    class       surfaceScalarField;
    location    "19.44";
    object      phi_0;
}
// * * * * * * * * * * * * * * * * * * * * * * * * * * * * * * * * * * * * * //

dimensions      [0 3 -1 0 0 0 0];
oriented        oriented;


internalField   nonuniform List<scalar> 
2671
(
1.26303e-05
3.17508e-15
1.26303e-05
2.52129e-15
1.26303e-05
1.99672e-15
1.26303e-05
1.52561e-15
1.26303e-05
1.19556e-15
1.26303e-05
9.32319e-16
1.26303e-05
7.09241e-16
1.26303e-05
5.16994e-16
1.26303e-05
3.42427e-16
1.26303e-05
1.72002e-16
1.26303e-05
-7.34801e-18
1.26303e-05
-1.78401e-16
1.26303e-05
-3.65596e-16
1.26303e-05
-5.85611e-16
1.26303e-05
-8.6408e-16
1.26303e-05
-1.18973e-15
1.26303e-05
-1.67554e-15
1.26303e-05
-2.28261e-15
1.26303e-05
-4.01337e-15
-1.92496e-15
1.38189e-05
9.50674e-16
1.38189e-05
7.63853e-16
1.38189e-05
7.53601e-16
1.38189e-05
7.47435e-16
1.38189e-05
7.25341e-16
1.38189e-05
7.01763e-16
1.38189e-05
6.5597e-16
1.38189e-05
5.93535e-16
1.38189e-05
5.14442e-16
1.38189e-05
4.06883e-16
1.38189e-05
2.73314e-16
1.38189e-05
1.24312e-16
1.38189e-05
-3.85584e-17
1.38189e-05
-2.1817e-16
1.38189e-05
-4.0332e-16
1.38189e-05
-5.91707e-16
1.38189e-05
-7.89372e-16
1.38189e-05
-1.07407e-15
1.38189e-05
-2.494e-15
-1.60192e-15
1.56479e-05
-9.46446e-16
1.56479e-05
-6.89806e-16
1.56479e-05
-8.00166e-17
1.56479e-05
2.84912e-16
1.56479e-05
4.97783e-16
1.56479e-05
7.02358e-16
1.56479e-05
8.16675e-16
1.56479e-05
8.61879e-16
1.56479e-05
8.51513e-16
1.56479e-05
7.85939e-16
1.56479e-05
6.78063e-16
1.56479e-05
5.38336e-16
1.56479e-05
3.76679e-16
1.56479e-05
2.01918e-16
1.56479e-05
2.52292e-17
1.56479e-05
-1.49447e-16
1.56479e-05
-3.23268e-16
1.56479e-05
-6.33889e-16
1.56479e-05
-1.84758e-15
-1.95083e-15
1.69092e-05
-1.95244e-15
1.69092e-05
-1.58726e-15
1.69092e-05
-7.21231e-16
1.69092e-05
-1.43535e-16
1.69092e-05
2.07286e-16
1.69092e-05
5.77915e-16
1.69092e-05
8.45673e-16
1.69092e-05
1.00989e-15
1.69092e-05
1.08524e-15
1.69092e-05
1.08685e-15
1.69092e-05
1.02884e-15
1.69092e-05
9.20978e-16
1.69092e-05
7.73677e-16
1.69092e-05
5.96878e-16
1.69092e-05
3.98431e-16
1.69092e-05
1.79089e-16
1.69092e-05
-8.53783e-17
1.69092e-05
-5.21778e-16
1.69092e-05
-1.51835e-15
-2.18079e-15
1.78733e-05
-2.28633e-15
1.78733e-05
-1.95989e-15
1.78733e-05
-1.01669e-15
1.78733e-05
-3.38391e-16
1.78733e-05
1.0206e-16
1.78733e-05
5.64284e-16
1.78733e-05
9.13016e-16
1.78733e-05
1.14646e-15
1.78733e-05
1.27511e-15
1.78733e-05
1.30617e-15
1.78733e-05
1.26373e-15
1.78733e-05
1.16175e-15
1.78733e-05
9.99629e-16
1.78733e-05
7.86303e-16
1.78733e-05
5.26243e-16
1.78733e-05
2.15367e-16
1.78733e-05
-1.82473e-16
1.78733e-05
-7.28515e-16
1.78733e-05
-1.52555e-15
-2.22226e-15
1.86559e-05
-2.14699e-15
1.86559e-05
-1.84779e-15
1.86559e-05
-9.52797e-16
1.86559e-05
-2.71459e-16
1.86559e-05
1.80565e-16
1.86559e-05
6.45629e-16
1.86559e-05
9.91945e-16
1.86559e-05
1.22242e-15
1.86559e-05
1.34525e-15
1.86559e-05
1.36113e-15
1.86559e-05
1.30059e-15
1.86559e-05
1.18072e-15
1.86559e-05
9.87067e-16
1.86559e-05
7.28014e-16
1.86559e-05
4.02805e-16
1.86559e-05
3.43454e-18
1.86559e-05
-4.95579e-16
1.86559e-05
-1.07132e-15
1.86559e-05
-1.58186e-15
-1.98177e-15
1.93163e-05
-1.60106e-15
1.93163e-05
-1.29026e-15
1.93163e-05
-5.73486e-16
1.93163e-05
3.02644e-17
1.93163e-05
4.19689e-16
1.93163e-05
8.00376e-16
1.93163e-05
1.05963e-15
1.93163e-05
1.20751e-15
1.93163e-05
1.25638e-15
1.93163e-05
1.21552e-15
1.93163e-05
1.10909e-15
1.93163e-05
9.4865e-16
1.93163e-05
7.22944e-16
1.93163e-05
4.32457e-16
1.93163e-05
6.93751e-17
1.93163e-05
-3.77823e-16
1.93163e-05
-9.19806e-16
1.93163e-05
-1.42053e-15
1.93163e-05
-1.54901e-15
-1.53992e-15
1.98889e-05
-6.16732e-16
1.98889e-05
-3.28824e-16
1.98889e-05
1.41525e-16
1.98889e-05
5.70996e-16
1.98889e-05
8.16119e-16
1.98889e-05
1.00281e-15
1.98889e-05
1.07032e-15
1.98889e-05
1.04921e-15
1.98889e-05
9.4755e-16
1.98889e-05
7.85579e-16
1.98889e-05
5.87378e-16
1.98889e-05
3.68629e-16
1.98889e-05
1.28024e-16
1.98889e-05
-1.4154e-16
1.98889e-05
-4.66879e-16
1.98889e-05
-8.74501e-16
1.98889e-05
-1.36041e-15
1.98889e-05
-1.61229e-15
1.98889e-05
-1.29939e-15
-7.67556e-16
2.03954e-05
9.73668e-16
2.03954e-05
1.11404e-15
2.03954e-05
1.23984e-15
2.03954e-05
1.30128e-15
2.03954e-05
1.24428e-15
2.03954e-05
1.09588e-15
2.03954e-05
8.48405e-16
2.03954e-05
5.39825e-16
2.03954e-05
1.8825e-16
2.03954e-05
-1.72462e-16
2.03954e-05
-4.85976e-16
2.03954e-05
-7.32106e-16
2.03954e-05
-8.89955e-16
2.03954e-05
-9.72931e-16
2.03954e-05
-1.07256e-15
2.03954e-05
-1.27577e-15
2.03954e-05
-1.52024e-15
2.03954e-05
-1.41266e-15
2.03954e-05
-5.767e-16
5.65893e-16
2.08503e-05
3.0316e-15
2.08503e-05
2.86512e-15
2.08503e-05
2.20318e-15
2.08503e-05
1.67368e-15
2.08503e-05
1.26853e-15
2.08503e-05
8.45783e-16
2.08503e-05
2.74118e-16
2.08503e-05
-4.25458e-16
2.08503e-05
-1.15103e-15
2.08503e-05
-1.88514e-15
2.08503e-05
-2.20739e-15
2.08503e-05
-2.36719e-15
2.08503e-05
-2.32949e-15
2.08503e-05
-1.74784e-15
2.08503e-05
-1.23948e-15
2.08503e-05
-1.00864e-15
2.08503e-05
-9.0787e-16
2.08503e-05
-4.80632e-16
2.08503e-05
9.22937e-16
2.66522e-15
2.12638e-05
2.63891e-15
2.12638e-05
2.65015e-15
2.12638e-05
1.74592e-15
2.12638e-05
1.44096e-15
2.12638e-05
1.03456e-15
2.12638e-05
5.74367e-16
2.12638e-05
-5.93497e-17
2.12638e-05
-9.10296e-16
2.12638e-05
-1.48986e-15
2.12638e-05
-1.67314e-15
2.12638e-05
-9.74644e-16
2.12638e-05
-9.26635e-16
2.12638e-05
-1.22966e-15
2.12638e-05
-5.98859e-16
2.12638e-05
-4.85394e-16
2.12638e-05
-7.51153e-16
2.12638e-05
-1.17189e-15
2.12638e-05
-1.20262e-15
2.12638e-05
-1.94299e-16
1.58294e-15
2.16434e-05
-1.79008e-15
2.16434e-05
-6.02402e-16
2.16434e-05
5.51725e-16
2.16434e-05
1.30359e-15
2.16434e-05
1.79539e-15
2.16434e-05
2.02553e-15
2.16434e-05
2.16366e-15
2.16434e-05
2.36095e-15
2.16434e-05
2.76503e-15
2.16434e-05
3.87047e-15
2.16434e-05
4.82018e-15
2.16434e-05
4.23206e-15
2.16434e-05
2.60336e-15
2.16434e-05
2.95207e-16
2.16434e-05
-1.91407e-15
2.16434e-05
-3.59999e-15
2.16434e-05
-5.16889e-15
2.16434e-05
-6.10248e-15
2.16434e-05
-5.68597e-15
-3.92329e-15
2.19957e-05
-1.76321e-15
2.19957e-05
-1.06337e-15
2.19957e-05
-2.99396e-17
2.19957e-05
6.2996e-16
2.19957e-05
9.68697e-16
2.19957e-05
1.23567e-15
2.19957e-05
1.5389e-15
2.19957e-05
1.94916e-15
2.19957e-05
2.51285e-15
2.19957e-05
3.32177e-15
2.19957e-05
3.91174e-15
2.19957e-05
3.80503e-15
2.19957e-05
2.94007e-15
2.19957e-05
1.21878e-15
2.19957e-05
-7.3502e-16
2.19957e-05
-2.60623e-15
2.19957e-05
-4.34302e-15
2.19957e-05
-5.44113e-15
2.19957e-05
-4.84216e-15
-3.20855e-15
2.23264e-05
1.79764e-16
2.23264e-05
6.69727e-16
2.23264e-05
9.47442e-16
2.23264e-05
1.16832e-15
2.23264e-05
1.276e-15
2.23264e-05
1.3006e-15
2.23264e-05
1.31947e-15
2.23264e-05
1.37051e-15
2.23264e-05
1.46898e-15
2.23264e-05
1.60939e-15
2.23264e-05
1.71777e-15
2.23264e-05
1.58431e-15
2.23264e-05
1.03844e-15
2.23264e-05
9.29263e-17
2.23264e-05
-1.08357e-15
2.23264e-05
-2.36563e-15
2.23264e-05
-3.64952e-15
2.23264e-05
-4.30289e-15
2.23264e-05
-3.23992e-15
-1.10212e-15
2.26386e-05
1.59998e-15
2.26386e-05
1.91022e-15
2.26386e-05
1.89044e-15
2.26386e-05
1.87217e-15
2.26386e-05
1.81417e-15
2.26386e-05
1.67076e-15
2.26386e-05
1.50643e-15
2.26386e-05
1.31151e-15
2.26386e-05
1.10429e-15
2.26386e-05
8.82089e-16
2.26386e-05
6.18596e-16
2.26386e-05
2.49502e-16
2.26386e-05
-2.87014e-16
2.26386e-05
-1.00421e-15
2.26386e-05
-1.87183e-15
2.26386e-05
-2.8618e-15
2.26386e-05
-3.83858e-15
2.26386e-05
-4.09933e-15
2.26386e-05
-2.57998e-15
1.12559e-16
2.29347e-05
2.59049e-15
2.29347e-05
2.88377e-15
2.29347e-05
2.68592e-15
2.29347e-05
2.48957e-15
2.29347e-05
2.29268e-15
2.29347e-05
1.99414e-15
2.29347e-05
1.67149e-15
2.29347e-05
1.30919e-15
2.29347e-05
9.17665e-16
2.29347e-05
4.96908e-16
2.29347e-05
3.69282e-17
2.29347e-05
-4.83012e-16
2.29347e-05
-1.08591e-15
2.29347e-05
-1.78257e-15
2.29347e-05
-2.57458e-15
2.29347e-05
-3.45188e-15
2.29347e-05
-4.22155e-15
2.29347e-05
-4.22169e-15
2.29347e-05
-2.3723e-15
8.24715e-16
2.32161e-05
3.39335e-15
2.32161e-05
3.70564e-15
2.32161e-05
3.3609e-15
2.32161e-05
3.01469e-15
2.32161e-05
2.6993e-15
2.32161e-05
2.26334e-15
2.32161e-05
1.79662e-15
2.32161e-05
1.29718e-15
2.32161e-05
7.71239e-16
2.32161e-05
2.19528e-16
2.32161e-05
-3.62535e-16
2.32161e-05
-9.83147e-16
2.32161e-05
-1.65031e-15
2.32161e-05
-2.3684e-15
2.32161e-05
-3.14882e-15
2.32161e-05
-3.98854e-15
2.32161e-05
-4.63324e-15
2.32161e-05
-4.44065e-15
2.32161e-05
-2.30141e-15
1.35526e-15
2.34842e-05
4.14431e-15
2.34842e-05
4.47181e-15
2.34842e-05
3.98827e-15
2.34842e-05
3.50029e-15
2.34842e-05
3.07516e-15
2.34842e-05
2.50355e-15
2.34842e-05
1.89793e-15
2.34842e-05
1.27082e-15
2.34842e-05
6.27729e-16
2.34842e-05
-3.03046e-17
2.34842e-05
-7.05959e-16
2.34842e-05
-1.40334e-15
2.34842e-05
-2.12476e-15
2.34842e-05
-2.87076e-15
2.34842e-05
-3.6568e-15
2.34842e-05
-4.48553e-15
2.34842e-05
-5.05877e-15
2.34842e-05
-4.71288e-15
2.34842e-05
-2.26906e-15
1.8383e-15
2.374e-05
4.99851e-15
2.374e-05
5.21591e-15
2.374e-05
4.56598e-15
2.374e-05
3.92835e-15
2.374e-05
3.38752e-15
2.374e-05
2.68237e-15
2.374e-05
1.94763e-15
2.374e-05
1.20438e-15
2.374e-05
4.59184e-16
2.374e-05
-2.87343e-16
2.374e-05
-1.03779e-15
2.374e-05
-1.79487e-15
2.374e-05
-2.55872e-15
2.374e-05
-3.32676e-15
2.374e-05
-4.11616e-15
2.374e-05
-4.93464e-15
2.374e-05
-5.46428e-15
2.374e-05
-4.99941e-15
2.374e-05
-2.2358e-15
2.36593e-15
2.41167e-05
5.7551e-15
2.41167e-05
5.93608e-15
2.41167e-05
5.11279e-15
2.41167e-05
4.317e-15
2.41167e-05
3.65735e-15
2.41167e-05
2.81821e-15
2.41167e-05
1.96063e-15
2.41167e-05
1.11034e-15
2.41167e-05
2.75188e-16
2.41167e-05
-5.46332e-16
2.41167e-05
-1.35767e-15
2.41167e-05
-2.16201e-15
2.41167e-05
-2.95822e-15
2.41167e-05
-3.73914e-15
2.41167e-05
-4.5256e-15
2.41167e-05
-5.32919e-15
2.41167e-05
-5.81854e-15
2.41167e-05
-5.23755e-15
2.41167e-05
-2.15161e-15
2.88318e-15
2.55814e-05
6.45944e-15
2.55814e-05
6.46437e-15
2.55814e-05
5.53134e-15
2.55814e-05
4.63742e-15
2.55814e-05
3.8997e-15
2.55814e-05
2.97002e-15
2.55814e-05
2.01794e-15
2.55814e-05
1.07733e-15
2.55814e-05
1.61626e-16
2.55814e-05
-7.29312e-16
2.55814e-05
-1.59847e-15
2.55814e-05
-2.45004e-15
2.55814e-05
-3.28204e-15
2.55814e-05
-4.08341e-15
2.55814e-05
-4.88024e-15
2.55814e-05
-5.68877e-15
2.55814e-05
-6.15758e-15
2.55814e-05
-5.49791e-15
2.55814e-05
-2.15533e-15
3.30393e-15
2.7134e-05
6.66269e-15
2.7134e-05
6.64877e-15
2.7134e-05
5.72775e-15
2.7134e-05
4.80353e-15
2.7134e-05
4.05805e-15
2.7134e-05
3.12629e-15
2.7134e-05
2.15281e-15
2.7134e-05
1.17981e-15
2.7134e-05
2.22763e-16
2.7134e-05
-7.14529e-16
2.7134e-05
-1.63133e-15
2.7134e-05
-2.531e-15
2.7134e-05
-3.41086e-15
2.7134e-05
-4.25886e-15
2.7134e-05
-5.106e-15
2.7134e-05
-5.97758e-15
2.7134e-05
-6.47885e-15
2.7134e-05
-5.78127e-15
2.7134e-05
-2.20285e-15
3.51069e-15
2.87794e-05
6.54487e-15
2.87794e-05
6.78903e-15
2.87794e-05
5.83311e-15
2.87794e-05
4.93525e-15
2.87794e-05
4.21375e-15
2.87794e-05
3.26364e-15
2.87794e-05
2.26287e-15
2.87794e-05
1.26482e-15
2.87794e-05
2.82477e-16
2.87794e-05
-6.7898e-16
2.87794e-05
-1.62121e-15
2.87794e-05
-2.54801e-15
2.87794e-05
-3.45753e-15
2.87794e-05
-4.33935e-15
2.87794e-05
-5.22921e-15
2.87794e-05
-6.15159e-15
2.87794e-05
-6.68037e-15
2.87794e-05
-6.00368e-15
2.87794e-05
-2.2362e-15
3.5563e-15
3.0522e-05
7.53964e-15
3.0522e-05
7.42786e-15
3.0522e-05
6.15398e-15
3.0522e-05
5.04375e-15
3.0522e-05
4.14957e-15
3.0522e-05
3.05232e-15
3.0522e-05
1.96565e-15
3.0522e-05
9.19529e-16
3.0522e-05
-8.21176e-17
3.0522e-05
-1.04327e-15
3.0522e-05
-1.96806e-15
3.0522e-05
-2.86317e-15
3.0522e-05
-3.72865e-15
3.0522e-05
-4.55313e-15
3.0522e-05
-5.36852e-15
3.0522e-05
-6.19527e-15
3.0522e-05
-6.61914e-15
3.0522e-05
-5.89179e-15
3.0522e-05
-2.05037e-15
4.1111e-15
3.23646e-05
7.38944e-15
3.23646e-05
7.30006e-15
3.23646e-05
6.10285e-15
3.23646e-05
5.07747e-15
3.23646e-05
4.24102e-15
3.23646e-05
3.16401e-15
3.23646e-05
2.07209e-15
3.23646e-05
1.00996e-15
3.23646e-05
-1.15429e-17
3.23646e-05
-9.92971e-16
3.23646e-05
-1.93641e-15
3.23646e-05
-2.84672e-15
3.23646e-05
-3.72296e-15
3.23646e-05
-4.55074e-15
3.23646e-05
-5.36025e-15
3.23646e-05
-6.18332e-15
3.23646e-05
-6.60371e-15
3.23646e-05
-5.89389e-15
3.23646e-05
-2.17471e-15
3.92024e-15
3.43081e-05
7.04437e-15
3.43081e-05
6.93869e-15
3.43081e-05
5.76907e-15
3.43081e-05
4.79939e-15
3.43081e-05
4.02743e-15
3.43081e-05
3.04026e-15
3.43081e-05
2.02413e-15
3.43081e-05
1.02156e-15
3.43081e-05
4.93821e-17
3.43081e-05
-8.90516e-16
3.43081e-05
-1.79834e-15
3.43081e-05
-2.67772e-15
3.43081e-05
-3.52689e-15
3.43081e-05
-4.33001e-15
3.43081e-05
-5.11971e-15
3.43081e-05
-5.93536e-15
3.43081e-05
-6.35388e-15
3.43081e-05
-5.6774e-15
3.43081e-05
-2.1294e-15
3.72484e-15
3.63517e-05
6.78372e-15
3.63517e-05
6.58854e-15
3.63517e-05
5.44001e-15
3.63517e-05
4.48242e-15
3.63517e-05
3.73343e-15
3.63517e-05
2.7882e-15
3.63517e-05
1.82111e-15
3.63517e-05
8.74235e-16
3.63517e-05
-3.80405e-17
3.63517e-05
-9.15123e-16
3.63517e-05
-1.75843e-15
3.63517e-05
-2.57194e-15
3.63517e-05
-3.35465e-15
3.63517e-05
-4.09098e-15
3.63517e-05
-4.81018e-15
3.63517e-05
-5.5558e-15
3.63517e-05
-5.92527e-15
3.63517e-05
-5.25646e-15
3.63517e-05
-1.89105e-15
3.65615e-15
3.8496e-05
6.02587e-15
3.8496e-05
5.97586e-15
3.8496e-05
4.96926e-15
3.8496e-05
4.065e-15
3.8496e-05
3.3516e-15
3.8496e-05
2.4523e-15
3.8496e-05
1.53925e-15
3.8496e-05
6.51183e-16
3.8496e-05
-2.00693e-16
3.8496e-05
-1.01615e-15
3.8496e-05
-1.79514e-15
3.8496e-05
-2.53923e-15
3.8496e-05
-3.24694e-15
3.8496e-05
-3.90719e-15
3.8496e-05
-4.52171e-15
3.8496e-05
-5.0794e-15
3.8496e-05
-5.19787e-15
3.8496e-05
-4.29637e-15
3.8496e-05
-9.57545e-16
3.72781e-15
4.07476e-05
5.41524e-15
4.07476e-05
5.2344e-15
4.07476e-05
4.30719e-15
4.07476e-05
3.49583e-15
4.07476e-05
2.84789e-15
4.07476e-05
2.03164e-15
4.07476e-05
1.20815e-15
4.07476e-05
4.09207e-16
4.07476e-05
-3.56222e-16
4.07476e-05
-1.08662e-15
4.07476e-05
-1.78023e-15
4.07476e-05
-2.43596e-15
4.07476e-05
-3.05157e-15
4.07476e-05
-3.62144e-15
4.07476e-05
-4.12064e-15
4.07476e-05
-4.4848e-15
4.07476e-05
-4.37921e-15
4.07476e-05
-3.30517e-15
4.07476e-05
-9.61255e-17
3.76833e-15
4.31156e-05
4.80394e-15
4.31156e-05
4.60259e-15
4.31156e-05
3.73224e-15
4.31156e-05
2.98454e-15
4.31156e-05
2.39996e-15
4.31156e-05
1.66583e-15
4.31156e-05
9.31031e-16
4.31156e-05
2.28195e-16
4.31156e-05
-4.36889e-16
4.31156e-05
-1.06274e-15
4.31156e-05
-1.648e-15
4.31156e-05
-2.19217e-15
4.31156e-05
-2.6938e-15
4.31156e-05
-3.14976e-15
4.31156e-05
-3.53442e-15
4.31156e-05
-3.79754e-15
4.31156e-05
-3.67911e-15
4.31156e-05
-2.72569e-15
4.31156e-05
1.13465e-16
3.45824e-15
4.56037e-05
4.01699e-15
4.56037e-05
3.83176e-15
4.56037e-05
3.08109e-15
4.56037e-05
2.43997e-15
4.56037e-05
1.94813e-15
4.56037e-05
1.33502e-15
4.56037e-05
7.2261e-16
4.56037e-05
1.36681e-16
4.56037e-05
-4.18472e-16
4.56037e-05
-9.38568e-16
4.56037e-05
-1.41942e-15
4.56037e-05
-1.86045e-15
4.56037e-05
-2.26086e-15
4.56037e-05
-2.61962e-15
4.56037e-05
-2.90938e-15
4.56037e-05
-3.09981e-15
4.56037e-05
-2.98727e-15
4.56037e-05
-2.18566e-15
4.56037e-05
2.1605e-16
2.97112e-15
4.82107e-05
3.15294e-15
4.82107e-05
3.02685e-15
4.82107e-05
2.43316e-15
4.82107e-05
1.91308e-15
4.82107e-05
1.50604e-15
4.82107e-05
1.00098e-15
4.82107e-05
4.93386e-16
4.82107e-05
2.02332e-18
4.82107e-05
-4.54038e-16
4.82107e-05
-8.58998e-16
4.82107e-05
-1.21182e-15
4.82107e-05
-1.51801e-15
4.82107e-05
-1.79311e-15
4.82107e-05
-2.03682e-15
4.82107e-05
-2.22377e-15
4.82107e-05
-2.33589e-15
4.82107e-05
-2.22496e-15
4.82107e-05
-1.58366e-15
4.82107e-05
3.12096e-16
2.40045e-15
5.09327e-05
1.86176e-15
5.09327e-05
1.94315e-15
5.09327e-05
1.73102e-15
5.09327e-05
1.47896e-15
5.09327e-05
1.23582e-15
5.09327e-05
9.5429e-16
5.09327e-05
5.92832e-16
5.09327e-05
1.41638e-16
5.09327e-05
-3.80174e-16
5.09327e-05
-6.72343e-16
5.09327e-05
-7.99612e-16
5.09327e-05
-8.70134e-16
5.09327e-05
-9.90926e-16
5.09327e-05
-1.17152e-15
5.09327e-05
-1.38041e-15
5.09327e-05
-1.59884e-15
5.09327e-05
-1.74792e-15
5.09327e-05
-1.40485e-15
5.09327e-05
-1.55103e-16
1.23229e-15
5.37631e-05
1.10024e-15
5.37631e-05
1.25691e-15
5.37631e-05
1.19383e-15
5.37631e-05
1.07538e-15
5.37631e-05
8.17789e-16
5.37631e-05
5.93689e-16
5.37631e-05
3.59384e-16
5.37631e-05
1.3179e-16
5.37631e-05
-2.76318e-16
5.37631e-05
-4.38248e-16
5.37631e-05
-3.45912e-16
5.37631e-05
-3.49888e-16
5.37631e-05
-4.86098e-16
5.37631e-05
-6.82951e-16
5.37631e-05
-9.07657e-16
5.37631e-05
-1.11103e-15
5.37631e-05
-1.22358e-15
5.37631e-05
-9.53526e-16
5.37631e-05
-2.62231e-16
5.08367e-16
5.6695e-05
8.01103e-16
5.6695e-05
4.64734e-16
5.6695e-05
1.22142e-16
5.6695e-05
-9.60862e-17
5.6695e-05
-2.17509e-16
5.6695e-05
-2.62802e-16
5.6695e-05
-9.22433e-17
5.6695e-05
2.25641e-17
5.6695e-05
6.05064e-17
5.6695e-05
-1.01275e-16
5.6695e-05
-5.56002e-16
5.6695e-05
-7.61302e-16
5.6695e-05
-8.12053e-16
5.6695e-05
-7.79018e-16
5.6695e-05
-6.16422e-16
5.6695e-05
-3.15432e-16
5.6695e-05
2.55801e-16
5.6695e-05
6.93305e-16
5.6695e-05
1.04728e-15
1.14267e-15
5.97236e-05
3.69889e-16
5.97236e-05
1.66882e-16
5.97236e-05
-1.03807e-16
5.97236e-05
-2.45946e-16
5.97236e-05
-3.25741e-16
5.97236e-05
-3.56922e-16
5.97236e-05
-2.95213e-16
5.97236e-05
-1.73677e-16
5.97236e-05
-8.6189e-18
5.97236e-05
-1.79449e-17
5.97236e-05
-1.98925e-16
5.97236e-05
-3.03412e-16
5.97236e-05
-3.44395e-16
5.97236e-05
-2.96351e-16
5.97236e-05
-1.67808e-16
5.97236e-05
3.80534e-17
5.97236e-05
3.38726e-16
5.97236e-05
5.88675e-16
5.97236e-05
7.36975e-16
5.99532e-16
6.28498e-05
-8.65472e-17
6.28498e-05
-1.27362e-16
6.28498e-05
-1.60725e-16
6.28498e-05
-1.63746e-16
6.28498e-05
-1.57054e-16
6.28498e-05
-1.37554e-16
6.28498e-05
-1.14044e-16
6.28498e-05
-8.48809e-17
6.28498e-05
-5.4795e-17
6.28498e-05
-3.3719e-17
6.28498e-05
-1.7183e-17
6.28498e-05
5.62507e-18
6.28498e-05
4.00904e-17
6.28498e-05
8.34441e-17
6.28498e-05
1.3268e-16
6.28498e-05
1.84313e-16
6.28498e-05
2.32073e-16
6.28498e-05
2.57661e-16
6.28498e-05
1.83261e-16
1.84352e-17
6.60804e-05
-1.52753e-17
6.60804e-05
-2.33058e-17
6.60804e-05
-9.93555e-17
6.60804e-05
-9.09434e-17
6.60804e-05
-1.39788e-16
6.60804e-05
-1.09876e-16
6.60804e-05
-7.99178e-17
6.60804e-05
-5.01149e-17
6.60804e-05
-2.03747e-17
6.60804e-05
5.04843e-18
6.60804e-05
2.47351e-17
6.60804e-05
3.98269e-17
6.60804e-05
5.06676e-17
6.60804e-05
5.91951e-17
6.60804e-05
6.73897e-17
6.60804e-05
7.61538e-17
6.60804e-05
9.35137e-17
6.60804e-05
7.90221e-17
6.60804e-05
1.14359e-16
1.8952e-17
6.94261e-05
5.51441e-17
6.94261e-05
2.25325e-17
6.94261e-05
-7.60304e-17
6.94261e-05
-2.88606e-17
6.94261e-05
-7.7059e-17
6.94261e-05
-4.69227e-17
6.94261e-05
-1.73355e-17
6.94261e-05
9.24831e-18
6.94261e-05
3.06336e-17
6.94261e-05
4.44167e-17
6.94261e-05
5.03656e-17
6.94261e-05
4.80921e-17
6.94261e-05
3.82865e-17
6.94261e-05
2.20632e-17
6.94261e-05
8.10259e-19
6.94261e-05
-2.3603e-17
6.94261e-05
-3.55591e-17
6.94261e-05
-5.48364e-17
6.94261e-05
2.69825e-17
1.15454e-17
7.28995e-05
4.44029e-17
7.28995e-05
1.11678e-17
7.28995e-05
-3.86283e-17
7.28995e-05
7.18935e-18
7.28995e-05
2.31261e-17
7.28995e-05
3.54479e-17
7.28995e-05
4.13153e-17
7.28995e-05
4.7035e-17
7.28995e-05
5.04652e-17
7.28995e-05
4.90736e-17
7.28995e-05
4.22679e-17
7.28995e-05
2.9561e-17
7.28995e-05
1.25185e-17
7.28995e-05
-9.24898e-18
7.28995e-05
-3.65013e-17
7.28995e-05
-6.65089e-17
7.28995e-05
-9.59774e-17
7.28995e-05
-1.04276e-16
7.28995e-05
-4.80593e-17
5.56241e-18
7.6513e-05
2.04161e-16
7.6513e-05
1.66196e-16
7.6513e-05
8.98111e-17
7.6513e-05
7.84481e-17
7.6513e-05
6.20654e-17
7.6513e-05
4.09427e-17
7.6513e-05
2.66293e-17
7.6513e-05
1.05831e-17
7.6513e-05
-6.43688e-18
7.6513e-05
-2.40394e-17
7.6513e-05
-4.24108e-17
7.6513e-05
-6.16493e-17
7.6513e-05
-8.1904e-17
7.6513e-05
-1.02918e-16
7.6513e-05
-1.23891e-16
7.6513e-05
-1.4054e-16
7.6513e-05
-1.43362e-16
7.6513e-05
-1.11195e-16
7.6513e-05
1.14584e-17
1.47945e-16
8.02771e-05
2.82862e-16
8.02771e-05
2.41055e-16
8.02771e-05
1.5405e-16
8.02771e-05
1.14276e-16
8.02771e-05
7.87171e-17
8.02771e-05
3.82865e-17
8.02771e-05
1.08595e-17
8.02771e-05
-1.81326e-17
8.02771e-05
-4.60661e-17
8.02771e-05
-7.16759e-17
8.02771e-05
-9.49898e-17
8.02771e-05
-1.15937e-16
8.02771e-05
-1.34549e-16
8.02771e-05
-1.50188e-16
8.02771e-05
-1.60455e-16
8.02771e-05
-1.62452e-16
8.02771e-05
-1.4576e-16
8.02771e-05
-8.8883e-17
8.02771e-05
5.4035e-17
2.14835e-16
8.41994e-05
3.01514e-16
8.41994e-05
2.62716e-16
8.41994e-05
1.77396e-16
8.41994e-05
1.2776e-16
8.41994e-05
8.501e-17
8.41994e-05
3.78862e-17
8.41994e-05
3.35057e-18
8.41994e-05
-3.21544e-17
8.41994e-05
-6.49019e-17
8.41994e-05
-9.35863e-17
8.41994e-05
-1.18227e-16
8.41994e-05
-1.38745e-16
8.41994e-05
-1.54998e-16
8.41994e-05
-1.66147e-16
8.41994e-05
-1.68889e-16
8.41994e-05
-1.61389e-16
8.41994e-05
-1.33866e-16
8.41994e-05
-6.60517e-17
8.41994e-05
7.26861e-17
2.30577e-16
8.82873e-05
2.93561e-16
8.82873e-05
2.62689e-16
8.82873e-05
1.85586e-16
8.82873e-05
1.32126e-16
8.82873e-05
8.67224e-17
8.82873e-05
3.75367e-17
8.82873e-05
-2.64404e-20
8.82873e-05
-3.79182e-17
8.82873e-05
-7.22066e-17
8.82873e-05
-1.01602e-16
8.82873e-05
-1.26066e-16
8.82873e-05
-1.45496e-16
8.82873e-05
-1.59597e-16
8.82873e-05
-1.67036e-16
8.82873e-05
-1.65216e-16
8.82873e-05
-1.53154e-16
8.82873e-05
-1.19361e-16
8.82873e-05
-4.97554e-17
8.82873e-05
7.60539e-17
2.23063e-16
9.25475e-05
2.68742e-16
9.25475e-05
2.44347e-16
9.25475e-05
1.78123e-16
9.25475e-05
1.23216e-16
9.25475e-05
7.96248e-17
9.25475e-05
3.30834e-17
9.25475e-05
-2.98071e-18
9.25475e-05
-3.90499e-17
9.25475e-05
-7.14487e-17
9.25475e-05
-9.88628e-17
9.25475e-05
-1.21257e-16
9.25475e-05
-1.38552e-16
9.25475e-05
-1.50383e-16
9.25475e-05
-1.55412e-16
9.25475e-05
-1.51251e-16
9.25475e-05
-1.36925e-16
9.25475e-05
-1.01849e-16
9.25475e-05
-3.57339e-17
9.25475e-05
7.27737e-17
2.03725e-16
9.69876e-05
2.12843e-16
9.69876e-05
1.93523e-16
9.69876e-05
1.43489e-16
9.69876e-05
1.03196e-16
9.69876e-05
6.92158e-17
9.69876e-05
3.18252e-17
9.69876e-05
3.90824e-18
9.69876e-05
-2.49033e-17
9.69876e-05
-5.17049e-17
9.69876e-05
-7.49783e-17
9.69876e-05
-9.45866e-17
9.69876e-05
-1.104e-16
9.69876e-05
-1.22053e-16
9.69876e-05
-1.28616e-16
9.69876e-05
-1.2695e-16
9.69876e-05
-1.15795e-16
9.69876e-05
-8.70238e-17
9.69876e-05
-3.27876e-17
9.69876e-05
5.32442e-17
1.58488e-16
0.000101615
1.76202e-16
0.000101615
1.59885e-16
0.000101615
1.20026e-16
0.000101615
9.03326e-17
0.000101615
6.21776e-17
0.000101615
3.05322e-17
0.000101615
8.47804e-18
0.000101615
-1.5441e-17
0.000101615
-3.83963e-17
0.000101615
-5.87139e-17
0.000101615
-7.62089e-17
0.000101615
-9.07422e-17
0.000101615
-1.02002e-16
0.000101615
-1.09164e-16
0.000101615
-1.09132e-16
0.000101615
-1.00901e-16
0.000101615
-7.7437e-17
0.000101615
-3.28528e-17
0.000101615
3.71162e-17
1.26159e-16
0.000106439
1.61949e-16
0.000106439
1.50654e-16
0.000106439
1.17928e-16
0.000106439
8.7023e-17
0.000106439
5.99145e-17
0.000106439
2.94852e-17
0.000106439
8.55562e-18
0.000106439
-1.4295e-17
0.000106439
-3.61173e-17
0.000106439
-5.53349e-17
0.000106439
-7.17799e-17
0.000106439
-8.53203e-17
0.000106439
-9.56838e-17
0.000106439
-1.02084e-16
0.000106439
-1.01812e-16
0.000106439
-9.38044e-17
0.000106439
-7.19619e-17
0.000106439
-3.10797e-17
0.000106439
3.01263e-17
1.13533e-16
0.000111468
1.42183e-16
0.000111468
1.34975e-16
0.000111468
1.09153e-16
0.000111468
8.00186e-17
0.000111468
5.47277e-17
0.000111468
2.68642e-17
0.000111468
8.0418e-18
0.000111468
-1.27088e-17
0.000111468
-3.26004e-17
0.000111468
-5.00801e-17
0.000111468
-6.4971e-17
0.000111468
-7.71492e-17
0.000111468
-8.63719e-17
0.000111468
-9.19488e-17
0.000111468
-9.13743e-17
0.000111468
-8.37987e-17
0.000111468
-6.37568e-17
0.000111468
-2.68211e-17
0.000111468
2.63146e-17
9.91713e-17
0.000116713
1.20741e-16
0.000116713
1.16181e-16
0.000116713
9.62701e-17
0.000116713
6.96794e-17
0.000116713
4.66736e-17
0.000116713
2.15215e-17
0.000116713
5.03147e-18
0.000116713
-1.31879e-17
0.000116713
-3.06375e-17
0.000116713
-4.57762e-17
0.000116713
-5.84113e-17
0.000116713
-6.8428e-17
0.000116713
-7.56285e-17
0.000116713
-7.94119e-17
0.000116713
-7.76597e-17
0.000116713
-6.97597e-17
0.000116713
-5.10883e-17
0.000116713
-1.82893e-17
0.000116713
2.62164e-17
8.58444e-17
0.000122186
1.00867e-16
0.000122186
9.81842e-17
0.000122186
8.25988e-17
0.000122186
5.75293e-17
0.000122186
3.61887e-17
0.000122186
1.33004e-17
0.000122186
-1.38507e-18
0.000122186
-1.72551e-17
0.000122186
-3.2168e-17
0.000122186
-4.46285e-17
0.000122186
-5.44351e-17
0.000122186
-6.14698e-17
0.000122186
-6.552e-17
0.000122186
-6.5962e-17
0.000122186
-6.19427e-17
0.000122186
-5.23096e-17
0.000122186
-3.3745e-17
0.000122186
-4.56136e-18
0.000122186
3.09623e-17
7.56266e-17
0.000127898
8.31312e-17
0.000127898
8.1529e-17
0.000127898
6.84127e-17
0.000127898
4.35946e-17
0.000127898
2.30707e-17
0.000127898
1.75033e-18
0.000127898
-1.15838e-17
0.000127898
-2.53634e-17
0.000127898
-3.76926e-17
0.000127898
-4.71484e-17
0.000127898
-5.35306e-17
0.000127898
-5.66197e-17
0.000127898
-5.61183e-17
0.000127898
-5.2079e-17
0.000127898
-4.41594e-17
0.000127898
-3.10405e-17
0.000127898
-1.09926e-17
0.000127898
1.52879e-17
0.000127898
4.0878e-17
6.85854e-17
0.000133865
6.84034e-17
0.000133865
6.72767e-17
0.000133865
5.46356e-17
0.000133865
2.878e-17
0.000133865
8.14679e-18
0.000133865
-1.25297e-17
0.000133865
-2.4928e-17
0.000133865
-3.70033e-17
0.000133865
-4.68797e-17
0.000133865
-5.31892e-17
0.000133865
-5.55705e-17
0.000133865
-5.38848e-17
0.000133865
-4.82932e-17
0.000133865
-3.8971e-17
0.000133865
-2.53762e-17
0.000133865
-7.11022e-18
0.000133865
1.60475e-17
0.000133865
4.03829e-17
0.000133865
5.52755e-17
6.47111e-17
0.000140104
5.66119e-17
0.000140104
5.56335e-17
0.000140104
4.1915e-17
0.000140104
1.42449e-17
0.000140104
-7.04125e-18
0.000140104
-2.76238e-17
0.000140104
-3.9515e-17
0.000140104
-5.02004e-17
0.000140104
-5.7831e-17
0.000140104
-6.09266e-17
0.000140104
-5.90415e-17
0.000140104
-5.27998e-17
0.000140104
-4.22453e-17
0.000140104
-2.70717e-17
0.000140104
-7.26449e-18
0.000140104
1.68752e-17
0.000140104
4.41039e-17
0.000140104
6.7394e-17
0.000140104
7.20655e-17
6.26528e-17
0.000146634
4.98181e-17
0.000146634
4.91671e-17
0.000146634
3.32527e-17
0.000146634
3.56345e-18
0.000146634
-1.85836e-17
0.000146634
-3.87673e-17
0.000146634
-5.12593e-17
0.000146634
-6.07776e-17
0.000146634
-6.64292e-17
0.000146634
-6.64074e-17
0.000146634
-6.13641e-17
0.000146634
-5.24309e-17
0.000146634
-3.85238e-17
0.000146634
-1.93244e-17
0.000146634
4.9243e-18
0.000146634
3.35615e-17
0.000146634
6.44045e-17
0.000146634
8.77662e-17
0.000146634
8.53e-17
6.20545e-17
0.000153482
7.51201e-17
0.000153482
6.88986e-17
0.000153482
3.51324e-17
0.000153482
-1.39987e-17
0.000153482
-5.02416e-17
0.000153482
-8.1222e-17
0.000153482
-8.50547e-17
0.000153482
-6.82899e-17
0.000153482
-5.57178e-17
0.000153482
-4.35128e-17
0.000153482
-3.50568e-17
0.000153482
-3.10309e-17
0.000153482
-2.79641e-17
0.000153482
-2.5309e-17
0.000153482
-1.33264e-17
0.000153482
8.4151e-18
0.000153482
4.82184e-17
0.000153482
9.95249e-17
0.000153482
1.07213e-16
8.80889e-17
0.000160682
1.0292e-16
0.000160682
1.08088e-16
0.000160682
6.90875e-17
0.000160682
-3.42213e-18
0.000160682
-5.93627e-17
0.000160682
-9.28868e-17
0.000160682
-9.19005e-17
0.000160682
-5.69467e-17
0.000160682
-4.02782e-17
0.000160682
-3.13925e-17
0.000160682
-2.39466e-17
0.000160682
-2.16476e-17
0.000160682
-2.4771e-17
0.000160682
-4.86101e-17
0.000160682
-5.44651e-17
0.000160682
-3.71012e-17
0.000160682
1.26778e-17
0.000160682
9.45151e-17
0.000160682
1.04151e-16
9.51899e-17
0.000168283
5.6324e-17
0.000168283
7.21548e-17
0.000168283
6.85558e-17
0.000168283
6.07991e-17
0.000168283
3.29656e-17
0.000168283
1.07461e-17
0.000168283
-1.01488e-17
0.000168283
-6.02294e-17
0.000168283
-8.1339e-17
0.000168283
-8.89591e-17
0.000168283
-8.66457e-17
0.000168283
-7.32367e-17
0.000168283
-5.63863e-17
0.000168283
-3.33991e-17
0.000168283
-1.82696e-17
0.000168283
1.72364e-17
0.000168283
4.65584e-17
0.000168283
5.04624e-17
0.000168283
4.60116e-17
4.66806e-17
0.000176339
4.21455e-17
0.000176339
5.00045e-17
0.000176339
4.58345e-17
0.000176339
3.65455e-17
0.000176339
3.29195e-17
0.000176339
2.74369e-17
0.000176339
8.38496e-18
0.000176339
-3.00958e-17
0.000176339
-5.85669e-17
0.000176339
-7.88057e-17
0.000176339
-8.36166e-17
0.000176339
-7.58782e-17
0.000176339
-5.98703e-17
0.000176339
-3.14247e-17
0.000176339
-2.27708e-18
0.000176339
2.90124e-17
0.000176339
4.38867e-17
0.000176339
4.19315e-17
0.000176339
3.22995e-17
2.99967e-17
0.000184911
6.4071e-17
0.000184911
6.89494e-17
0.000184911
5.29719e-17
0.000184911
2.85208e-17
0.000184911
1.24121e-17
0.000184911
-2.07345e-18
0.000184911
-1.87612e-17
0.000184911
-2.87308e-17
0.000184911
-3.79877e-17
0.000184911
-4.38624e-17
0.000184911
-4.63582e-17
0.000184911
-4.5055e-17
0.000184911
-4.12222e-17
0.000184911
-3.48085e-17
0.000184911
-2.51947e-17
0.000184911
-1.24574e-17
0.000184911
3.05468e-18
0.000184911
1.96517e-17
0.000184911
3.56261e-17
5.11126e-17
0.000194037
5.24373e-17
0.000194037
5.7139e-17
0.000194037
4.15771e-17
0.000194037
2.86919e-17
0.000194037
1.62078e-17
0.000194037
2.14604e-18
0.000194037
-1.1877e-17
0.000194037
-2.14083e-17
0.000194037
-2.98636e-17
0.000194037
-3.54358e-17
0.000194037
-3.87855e-17
0.000194037
-3.8529e-17
0.000194037
-3.61709e-17
0.000194037
-3.12986e-17
0.000194037
-2.37978e-17
0.000194037
-1.40099e-17
0.000194037
-6.67166e-19
0.000194037
1.15641e-17
0.000194037
3.10735e-17
4.0856e-17
0.000203726
4.90352e-17
0.000203726
5.22963e-17
0.000203726
4.08755e-17
0.000203726
3.01904e-17
0.000203726
1.83272e-17
0.000203726
4.08372e-18
0.000203726
-9.96841e-18
0.000203726
-1.88435e-17