/*--------------------------------*- C++ -*----------------------------------*\
| =========                 |                                                 |
| \\      /  F ield         | OpenFOAM: The Open Source CFD Toolbox           |
|  \\    /   O peration     | Version:  v1906                                 |
|   \\  /    A nd           | Web:      www.OpenFOAM.com                      |
|    \\/     M anipulation  |                                                 |
\*---------------------------------------------------------------------------*/
FoamFile
{
    version     2.0;
    format      ascii;
    class       volVectorField;
    location    "19.44";
    object      U;
}
// * * * * * * * * * * * * * * * * * * * * * * * * * * * * * * * * * * * * * //

dimensions      [0 1 -1 0 0 0 0];


internalField   nonuniform List<vector> 
1380
(
(0.78936 1.28391e-09 0)
(0.78936 1.03084e-09 0)
(0.78936 7.98912e-10 0)
(0.78936 5.69049e-10 0)
(0.78936 3.89167e-10 0)
(0.78936 2.45653e-10 0)
(0.78936 1.29878e-10 0)
(0.78936 3.50183e-11 0)
(0.78936 -4.33675e-11 0)
(0.78936 -1.09957e-10 0)
(0.78936 -1.68628e-10 0)
(0.78936 -2.22957e-10 0)
(0.78936 -2.76364e-10 0)
(0.78936 -3.33527e-10 0)
(0.78936 -4.02461e-10 0)
(0.78936 -4.71459e-10 0)
(0.78936 -5.77365e-10 0)
(0.78936 -6.72419e-10 0)
(0.78936 -9.45436e-10 0)
(0.78936 -2.37986e-10 0)
(1.06295 3.1595e-10 0)
(1.06295 2.24412e-10 0)
(1.06295 1.51547e-10 0)
(1.06295 1.23169e-10 0)
(1.06295 1.09377e-10 0)
(1.06295 1.01489e-10 0)
(1.06295 9.79297e-11 0)
(1.06295 9.48324e-11 0)
(1.06295 8.94213e-11 0)
(1.06295 7.99838e-11 0)
(1.06295 6.39622e-11 0)
(1.06295 4.36954e-11 0)
(1.06295 1.90462e-11 0)
(1.06295 -1.1477e-11 0)
(1.06295 -4.92415e-11 0)
(1.06295 -9.58161e-11 0)
(1.06295 -1.57208e-10 0)
(1.06295 -2.47843e-10 0)
(1.06295 -5.90644e-10 0)
(1.06295 -3.49786e-10 0)
(1.20364 -4.61462e-11 0)
(1.20364 -6.65594e-12 0)
(1.20364 9.23115e-11 0)
(1.20364 1.42188e-10 0)
(1.20364 1.68096e-10 0)
(1.20364 1.85623e-10 0)
(1.20364 1.85147e-10 0)
(1.20364 1.74801e-10 0)
(1.20364 1.57113e-10 0)
(1.20364 1.28863e-10 0)
(1.20364 9.42232e-11 0)
(1.20364 5.55929e-11 0)
(1.20364 1.47496e-11 0)
(1.20364 -2.67045e-11 0)
(1.20364 -6.59092e-11 0)
(1.20364 -1.02096e-10 0)
(1.20364 -1.33892e-10 0)
(1.20364 -1.84696e-10 0)
(1.20364 -4.51127e-10 0)
(1.20364 -3.80961e-10 0)
(1.30066 -3.3591e-10 0)
(1.30066 -2.58818e-10 0)
(1.30066 -1.03461e-10 0)
(1.30066 -5.11968e-12 0)
(1.30066 5.19205e-11 0)
(1.30066 1.13035e-10 0)
(1.30066 1.55844e-10 0)
(1.30066 1.80113e-10 0)
(1.30066 1.89414e-10 0)
(1.30066 1.87307e-10 0)
(1.30066 1.74699e-10 0)
(1.30066 1.53778e-10 0)
(1.30066 1.26728e-10 0)
(1.30066 9.5616e-11 0)
(1.30066 6.20165e-11 0)
(1.30066 2.65034e-11 0)
(1.30066 -1.27105e-11 0)
(1.30066 -8.70669e-11 0)
(1.30066 -3.04591e-10 0)
(1.30066 -4.10711e-10 0)
(1.37482 -4.50392e-10 0)
(1.37482 -3.81381e-10 0)
(1.37482 -1.92395e-10 0)
(1.37482 -6.01628e-11 0)
(1.37482 2.44951e-11 0)
(1.37482 1.13617e-10 0)
(1.37482 1.79909e-10 0)
(1.37482 2.2323e-10 0)
(1.37482 2.45656e-10 0)
(1.37482 2.5011e-10 0)
(1.37482 2.41263e-10 0)
(1.37482 2.20232e-10 0)
(1.37482 1.8902e-10 0)
(1.37482 1.49579e-10 0)
(1.37482 1.03399e-10 0)
(1.37482 5.028e-11 0)
(1.37482 -1.75544e-11 0)
(1.37482 -1.1937e-10 0)
(1.37482 -3.02656e-10 0)
(1.37482 -4.65841e-10 0)
(1.43501 -4.62887e-10 0)
(1.43501 -4.02066e-10 0)
(1.43501 -2.14783e-10 0)
(1.43501 -7.50856e-11 0)
(1.43501 1.79761e-11 0)
(1.43501 1.14736e-10 0)
(1.43501 1.88184e-10 0)
(1.43501 2.38141e-10 0)
(1.43501 2.66968e-10 0)
(1.43501 2.74406e-10 0)
(1.43501 2.65508e-10 0)
(1.43501 2.44742e-10 0)
(1.43501 2.10188e-10 0)
(1.43501 1.63468e-10 0)
(1.43501 1.04909e-10 0)
(1.43501 3.3131e-11 0)
(1.43501 -5.85654e-11 0)
(1.43501 -1.75173e-10 0)
(1.43501 -3.10498e-10 0)
(1.43501 -4.24661e-10 0)
(1.48581 -3.96369e-10 0)
(1.48581 -3.37296e-10 0)
(1.48581 -1.64936e-10 0)
(1.48581 -3.2146e-11 0)
(1.48581 5.59732e-11 0)
(1.48581 1.45727e-10 0)
(1.48581 2.10824e-10 0)
(1.48581 2.5272e-10 0)
(1.48581 2.72419e-10 0)
(1.48581 2.70205e-10 0)
(1.48581 2.54274e-10 0)
(1.48581 2.26751e-10 0)
(1.48581 1.8355e-10 0)
(1.48581 1.26359e-10 0)
(1.48581 5.46485e-11 0)
(1.48581 -3.33786e-11 0)
(1.48581 -1.41267e-10 0)
(1.48581 -2.54444e-10 0)
(1.48581 -3.23055e-10 0)
(1.48581 -3.67838e-10 0)
(1.52985 -2.48394e-10 0)
(1.52985 -1.81297e-10 0)
(1.52985 -6.52291e-11 0)
(1.52985 4.54219e-11 0)
(1.52985 1.15079e-10 0)
(1.52985 1.79372e-10 0)
(1.52985 2.18535e-10 0)
(1.52985 2.35615e-10 0)
(1.52985 2.35213e-10 0)
(1.52985 2.20445e-10 0)
(1.52985 1.93024e-10 0)
(1.52985 1.54913e-10 0)
(1.52985 1.06133e-10 0)
(1.52985 4.54646e-11 0)
(1.52985 -2.95917e-11 0)
(1.52985 -1.21823e-10 0)
(1.52985 -2.31617e-10 0)
(1.52985 -3.19288e-10 0)
(1.52985 -3.02819e-10 0)
(1.52985 -2.53967e-10 0)
(1.56881 7.06705e-12 0)
(1.56881 5.94305e-11 0)
(1.56881 1.30836e-10 0)
(1.56881 1.93635e-10 0)
(1.56881 2.24072e-10 0)
(1.56881 2.34281e-10 0)
(1.56881 2.20104e-10 0)
(1.56881 1.90958e-10 0)
(1.56881 1.47629e-10 0)
(1.56881 9.42003e-11 0)
(1.56881 3.96299e-11 0)
(1.56881 -1.42707e-11 0)
(1.56881 -6.61585e-11 0)
(1.56881 -1.14151e-10 0)
(1.56881 -1.69561e-10 0)
(1.56881 -2.39761e-10 0)
(1.56881 -3.22873e-10 0)
(1.56881 -3.32571e-10 0)
(1.56881 -2.19587e-10 0)
(1.56881 -5.14802e-11 0)
(1.60381 3.89604e-10 0)
(1.60381 3.96361e-10 0)
(1.60381 3.72381e-10 0)
(1.60381 3.24536e-10 0)
(1.60381 2.71501e-10 0)
(1.60381 2.07289e-10 0)
(1.60381 1.28601e-10 0)
(1.60381 4.08037e-11 0)
(1.60381 -5.17332e-11 0)
(1.60381 -1.38486e-10 0)
(1.60381 -2.19021e-10 0)
(1.60381 -2.763e-10 0)
(1.60381 -2.96323e-10 0)
(1.60381 -2.90927e-10 0)
(1.60381 -2.76541e-10 0)
(1.60381 -2.89502e-10 0)
(1.60381 -3.04825e-10 0)
(1.60381 -2.53168e-10 0)
(1.60381 -3.16011e-11 0)
(1.60381 2.71046e-10 0)
(1.63562 8.11587e-10 0)
(1.63562 7.17179e-10 0)
(1.63562 4.86885e-10 0)
(1.63562 3.60764e-10 0)
(1.63562 2.44368e-10 0)
(1.63562 1.20571e-10 0)
(1.63562 -5.43525e-11 0)
(1.63562 -2.86924e-10 0)
(1.63562 -5.25038e-10 0)
(1.63562 -7.76956e-10 0)
(1.63562 -8.13302e-10 0)
(1.63562 -7.59293e-10 0)
(1.63562 -6.45348e-10 0)
(1.63562 -3.21151e-10 0)
(1.63562 -9.82836e-11 0)
(1.63562 6.54935e-12 0)
(1.63562 5.88346e-11 0)
(1.63562 1.651e-10 0)
(1.63562 4.94593e-10 0)
(1.63562 8.33544e-10 0)
(1.66482 1.35969e-10 0)
(1.66482 3.28431e-10 0)
(1.66482 2.79914e-10 0)
(1.66482 2.9294e-10 0)
(1.66482 2.96165e-10 0)
(1.66482 2.67185e-10 0)
(1.66482 2.05536e-10 0)
(1.66482 1.39575e-10 0)
(1.66482 1.58466e-10 0)
(1.66482 3.56931e-10 0)
(1.66482 6.22471e-10 0)
(1.66482 5.0139e-10 0)
(1.66482 1.49195e-10 0)
(1.66482 -9.40054e-11 0)
(1.66482 -3.24804e-10 0)
(1.66482 -5.31333e-10 0)
(1.66482 -7.55908e-10 0)
(1.66482 -8.68088e-10 0)
(1.66482 -7.66054e-10 0)
(1.66482 -3.62594e-10 0)
(1.69192 -7.21771e-10 0)
(1.69192 -5.23562e-10 0)
(1.69192 -1.06426e-10 0)
(1.69192 1.53135e-10 0)
(1.69192 3.00676e-10 0)
(1.69192 3.99534e-10 0)
(1.69192 4.96275e-10 0)
(1.69192 6.10322e-10 0)
(1.69192 7.47717e-10 0)
(1.69192 9.707e-10 0)
(1.69192 1.11542e-09 0)
(1.69192 1.07082e-09 0)
(1.69192 8.55045e-10 0)
(1.69192 3.38202e-10 0)
(1.69192 -2.16739e-10 0)
(1.69192 -6.8587e-10 0)
(1.69192 -1.09726e-09 0)
(1.69192 -1.36962e-09 0)
(1.69192 -1.30849e-09 0)
(1.69192 -1.04688e-09 0)
(1.71735 -1.03597e-10 0)
(1.71735 3.29345e-11 0)
(1.71735 1.15492e-10 0)
(1.71735 1.73145e-10 0)
(1.71735 2.02405e-10 0)
(1.71735 2.207e-10 0)
(1.71735 2.4313e-10 0)
(1.71735 2.81149e-10 0)
(1.71735 3.36939e-10 0)
(1.71735 4.08859e-10 0)
(1.71735 4.76183e-10 0)
(1.71735 4.71528e-10 0)
(1.71735 3.44362e-10 0)
(1.71735 1.18032e-10 0)
(1.71735 -1.52865e-10 0)
(1.71735 -4.40557e-10 0)
(1.71735 -7.27475e-10 0)
(1.71735 -9.02078e-10 0)
(1.71735 -7.38976e-10 0)
(1.71735 -3.57415e-10 0)
(1.74137 1.91523e-10 0)
(1.74137 2.57665e-10 0)
(1.74137 2.78484e-10 0)
(1.74137 3.01466e-10 0)
(1.74137 3.11169e-10 0)
(1.74137 3.05522e-10 0)
(1.74137 2.93352e-10 0)
(1.74137 2.73811e-10 0)
(1.74137 2.5322e-10 0)
(1.74137 2.32935e-10 0)
(1.74137 2.03674e-10 0)
(1.74137 1.46491e-10 0)
(1.74137 4.56386e-11 0)
(1.74137 -1.02954e-10 0)
(1.74137 -2.90558e-10 0)
(1.74137 -5.09228e-10 0)
(1.74137 -7.36277e-10 0)
(1.74137 -8.24573e-10 0)
(1.74137 -5.57294e-10 0)
(1.74137 -7.55192e-11 0)
(1.76414 4.36862e-10 0)
(1.76414 4.96973e-10 0)
(1.76414 4.75505e-10 0)
(1.76414 4.51929e-10 0)
(1.76414 4.23865e-10 0)
(1.76414 3.76144e-10 0)
(1.76414 3.23557e-10 0)
(1.76414 2.62289e-10 0)
(1.76414 1.95324e-10 0)
(1.76414 1.23371e-10 0)
(1.76414 4.40902e-11 0)
(1.76414 -4.87115e-11 0)
(1.76414 -1.62053e-10 0)
(1.76414 -2.99057e-10 0)
(1.76414 -4.58669e-10 0)
(1.76414 -6.37951e-10 0)
(1.76414 -8.03959e-10 0)
(1.76414 -8.23591e-10 0)
(1.76414 -4.83985e-10 0)
(1.76414 1.09037e-10 0)
(1.78579 6.00742e-10 0)
(1.78579 6.60908e-10 0)
(1.78579 6.06888e-10 0)
(1.78579 5.52889e-10 0)
(1.78579 5.01877e-10 0)
(1.78579 4.29227e-10 0)
(1.78579 3.50176e-10 0)
(1.78579 2.63307e-10 0)
(1.78579 1.69995e-10 0)
(1.78579 7.05459e-11 0)
(1.78579 -3.60868e-11 0)
(1.78579 -1.52132e-10 0)
(1.78579 -2.79993e-10 0)
(1.78579 -4.20991e-10 0)
(1.78579 -5.76781e-10 0)
(1.78579 -7.462e-10 0)
(1.78579 -8.84998e-10 0)
(1.78579 -8.64641e-10 0)
(1.78579 -4.65578e-10 0)
(1.78579 2.20373e-10 0)
(1.80641 7.54781e-10 0)
(1.80641 8.20633e-10 0)
(1.80641 7.39021e-10 0)
(1.80641 6.56147e-10 0)
(1.80641 5.82422e-10 0)
(1.80641 4.81694e-10 0)
(1.80641 3.73695e-10 0)
(1.80641 2.5985e-10 0)
(1.80641 1.41341e-10 0)
(1.80641 1.85038e-11 0)
(1.80641 -1.09154e-10 0)
(1.80641 -2.42576e-10 0)
(1.80641 -3.82515e-10 0)
(1.80641 -5.29364e-10 0)
(1.80641 -6.86064e-10 0)
(1.80641 -8.52531e-10 0)
(1.80641 -9.71297e-10 0)
(1.80641 -9.14504e-10 0)
(1.80641 -4.58224e-10 0)
(1.80641 3.18785e-10 0)
(1.82609 8.98334e-10 0)
(1.82609 9.68548e-10 0)
(1.82609 8.60481e-10 0)
(1.82609 7.48896e-10 0)
(1.82609 6.52677e-10 0)
(1.82609 5.24898e-10 0)
(1.82609 3.90112e-10 0)
(1.82609 2.52193e-10 0)
(1.82609 1.12232e-10 0)
(1.82609 -2.94961e-11 0)
(1.82609 -1.73386e-10 0)
(1.82609 -3.20034e-10 0)
(1.82609 -4.69567e-10 0)
(1.82609 -6.2178e-10 0)
(1.82609 -7.79908e-10 0)
(1.82609 -9.45078e-10 0)
(1.82609 -1.05527e-09 0)
(1.82609 -9.73299e-10 0)
(1.82609 -4.52748e-10 0)
(1.82609 4.1153e-10 0)
(1.84496 1.10575e-09 0)
(1.84496 1.11769e-09 0)
(1.84496 9.64757e-10 0)
(1.84496 8.22726e-10 0)
(1.84496 7.04051e-10 0)
(1.84496 5.50678e-10 0)
(1.84496 3.91686e-10 0)
(1.84496 2.31904e-10 0)
(1.84496 7.29427e-11 0)
(1.84496 -8.49914e-11 0)
(1.84496 -2.42355e-10 0)
(1.84496 -3.99536e-10 0)
(1.84496 -5.56382e-10 0)
(1.84496 -7.11921e-10 0)
(1.84496 -8.69721e-10 0)
(1.84496 -1.03174e-09 0)
(1.84496 -1.1329e-09 0)
(1.84496 -1.02815e-09 0)
(1.84496 -4.41944e-10 0)
(1.84496 5.37572e-10 0)
(1.86355 1.19169e-09 0)
(1.86355 1.25892e-09 0)
(1.86355 1.08473e-09 0)
(1.86355 9.06971e-10 0)
(1.86355 7.61101e-10 0)
(1.86355 5.78842e-10 0)
(1.86355 3.95099e-10 0)
(1.86355 2.14827e-10 0)
(1.86355 3.92842e-11 0)
(1.86355 -1.32222e-10 0)
(1.86355 -3.00428e-10 0)
(1.86355 -4.66112e-10 0)
(1.86355 -6.28833e-10 0)
(1.86355 -7.86439e-10 0)
(1.86355 -9.43662e-10 0)
(1.86355 -1.1031e-09 0)
(1.86355 -1.19708e-09 0)
(1.86355 -1.06817e-09 0)
(1.86355 -4.18328e-10 0)
(1.86355 6.13475e-10 0)
(1.88225 1.40617e-09 0)
(1.88225 1.3403e-09 0)
(1.88225 1.14263e-09 0)
(1.88225 9.58809e-10 0)
(1.88225 8.06353e-10 0)
(1.88225 6.13321e-10 0)
(1.88225 4.1358e-10 0)
(1.88225 2.16134e-10 0)
(1.88225 2.44425e-11 0)
(1.88225 -1.61394e-10 0)
(1.88225 -3.42012e-10 0)
(1.88225 -5.18331e-10 0)
(1.88225 -6.8991e-10 0)
(1.88225 -8.54276e-10 0)
(1.88225 -1.01701e-09 0)
(1.88225 -1.18198e-09 0)
(1.88225 -1.2762e-09 0)
(1.88225 -1.14153e-09 0)
(1.88225 -4.52005e-10 0)
(1.88225 7.12041e-10 0)
(1.90104 1.22604e-09 0)
(1.90104 1.28361e-09 0)
(1.90104 1.12031e-09 0)
(1.90104 9.56755e-10 0)
(1.90104 8.24967e-10 0)
(1.90104 6.54576e-10 0)
(1.90104 4.69566e-10 0)
(1.90104 2.79016e-10 0)
(1.90104 8.71197e-11 0)
(1.90104 -1.03555e-10 0)
(1.90104 -2.92109e-10 0)
(1.90104 -4.78754e-10 0)
(1.90104 -6.62681e-10 0)
(1.90104 -8.414e-10 0)
(1.90104 -1.0218e-09 0)
(1.90104 -1.21045e-09 0)
(1.90104 -1.32226e-09 0)
(1.90104 -1.18396e-09 0)
(1.90104 -4.47945e-10 0)
(1.90104 6.6322e-10 0)
(1.91986 1.41894e-09 0)
(1.91986 1.46378e-09 0)
(1.91986 1.23294e-09 0)
(1.91986 1.01382e-09 0)
(1.91986 8.41423e-10 0)
(1.91986 6.26406e-10 0)
(1.91986 4.11203e-10 0)
(1.91986 2.03978e-10 0)
(1.91986 5.11281e-12 0)
(1.91986 -1.86721e-10 0)
(1.91986 -3.72584e-10 0)
(1.91986 -5.53805e-10 0)
(1.91986 -7.30398e-10 0)
(1.91986 -9.00429e-10 0)
(1.91986 -1.07111e-09 0)
(1.91986 -1.24512e-09 0)
(1.91986 -1.33638e-09 0)
(1.91986 -1.19461e-09 0)
(1.91986 -4.16056e-10 0)
(1.91986 7.90107e-10 0)
(1.93855 1.59189e-09 0)
(1.93855 1.49961e-09 0)
(1.93855 1.22993e-09 0)
(1.93855 1.01486e-09 0)
(1.93855 8.37735e-10 0)
(1.93855 6.13434e-10 0)
(1.93855 3.90803e-10 0)
(1.93855 1.77252e-10 0)
(1.93855 -2.66362e-11 0)
(1.93855 -2.21662e-10 0)
(1.93855 -4.0865e-10 0)
(1.93855 -5.88778e-10 0)
(1.93855 -7.61984e-10 0)
(1.93855 -9.2554e-10 0)
(1.93855 -1.0848e-09 0)
(1.93855 -1.24532e-09 0)
(1.93855 -1.3275e-09 0)
(1.93855 -1.18202e-09 0)
(1.93855 -4.2529e-10 0)
(1.93855 8.42374e-10 0)
(1.95682 1.35422e-09 0)
(1.95682 1.41456e-09 0)
(1.95682 1.20556e-09 0)
(1.95682 1.01096e-09 0)
(1.95682 8.5312e-10 0)
(1.95682 6.49378e-10 0)
(1.95682 4.38561e-10 0)
(1.95682 2.29658e-10 0)
(1.95682 2.65317e-11 0)
(1.95682 -1.70078e-10 0)
(1.95682 -3.60112e-10 0)
(1.95682 -5.44242e-10 0)
(1.95682 -7.2201e-10 0)
(1.95682 -8.90208e-10 0)
(1.95682 -1.05545e-09 0)
(1.95682 -1.22503e-09 0)
(1.95682 -1.31185e-09 0)
(1.95682 -1.17452e-09 0)
(1.95682 -4.46692e-10 0)
(1.95682 7.17737e-10 0)
(1.97436 1.45149e-09 0)
(1.97436 1.34821e-09 0)
(1.97436 1.09242e-09 0)
(1.97436 9.01869e-10 0)
(1.97436 7.53743e-10 0)
(1.97436 5.65388e-10 0)
(1.97436 3.72043e-10 0)
(1.97436 1.81728e-10 0)
(1.97436 -2.55404e-12 0)
(1.97436 -1.8074e-10 0)
(1.97436 -3.53041e-10 0)
(1.97436 -5.20263e-10 0)
(1.97436 -6.82128e-10 0)
(1.97436 -8.35414e-10 0)
(1.97436 -9.86412e-10 0)
(1.97436 -1.14357e-09 0)
(1.97436 -1.22479e-09 0)
(1.97436 -1.09344e-09 0)
(1.97436 -4.07484e-10 0)
(1.97436 7.63041e-10 0)
(1.99097 1.28442e-09 0)
(1.99097 1.30417e-09 0)
(1.99097 1.09305e-09 0)
(1.99097 8.94987e-10 0)
(1.99097 7.40392e-10 0)
(1.99097 5.47975e-10 0)
(1.99097 3.524e-10 0)
(1.99097 1.62612e-10 0)
(1.99097 -1.8812e-11 0)
(1.99097 -1.92105e-10 0)
(1.99097 -3.57653e-10 0)
(1.99097 -5.16324e-10 0)
(1.99097 -6.67994e-10 0)
(1.99097 -8.0956e-10 0)
(1.99097 -9.46385e-10 0)
(1.99097 -1.08729e-09 0)
(1.99097 -1.15205e-09 0)
(1.99097 -1.01073e-09 0)
(1.99097 -3.40666e-10 0)
(1.99097 7.19403e-10 0)
(2.00677 1.11264e-09 0)
(2.00677 1.0776e-09 0)
(2.00677 8.90886e-10 0)
(2.00677 7.29152e-10 0)
(2.00677 5.98707e-10 0)
(2.00677 4.32501e-10 0)
(2.00677 2.64018e-10 0)
(2.00677 9.95094e-11 0)
(2.00677 -5.91046e-11 0)
(2.00677 -2.11483e-10 0)
(2.00677 -3.57237e-10 0)
(2.00677 -4.96104e-10 0)
(2.00677 -6.27607e-10 0)
(2.00677 -7.50423e-10 0)
(2.00677 -8.59568e-10 0)
(2.00677 -9.41204e-10 0)
(2.00677 -9.22786e-10 0)
(2.00677 -7.0299e-10 0)
(2.00677 -4.01416e-11 0)
(2.00677 7.63932e-10 0)
(2.02199 1.03168e-09 0)
(2.02199 9.95997e-10 0)
(2.02199 8.16902e-10 0)
(2.02199 6.59968e-10 0)
(2.02199 5.35477e-10 0)
(2.02199 3.78477e-10 0)
(2.02199 2.205e-10 0)
(2.02199 6.79466e-11 0)
(2.02199 -7.75861e-11 0)
(2.02199 -2.15763e-10 0)
(2.02199 -3.4622e-10 0)
(2.02199 -4.68726e-10 0)
(2.02199 -5.82828e-10 0)
(2.02199 -6.87567e-10 0)
(2.02199 -7.77794e-10 0)
(2.02199 -8.41742e-10 0)
(2.02199 -8.19076e-10 0)
(2.02199 -6.13757e-10 0)
(2.02199 -2.75612e-12 0)
(2.02199 7.26744e-10 0)
(2.03653 8.98355e-10 0)
(2.03653 8.50973e-10 0)
(2.03653 6.78588e-10 0)
(2.03653 5.33961e-10 0)
(2.03653 4.22607e-10 0)
(2.03653 2.84542e-10 0)
(2.03653 1.47739e-10 0)
(2.03653 1.88571e-11 0)
(2.03653 -1.0151e-10 0)
(2.03653 -2.13233e-10 0)
(2.03653 -3.16265e-10 0)
(2.03653 -4.10751e-10 0)
(2.03653 -4.96624e-10 0)
(2.03653 -5.73619e-10 0)
(2.03653 -6.36683e-10 0)
(2.03653 -6.77434e-10 0)
(2.03653 -6.52159e-10 0)
(2.03653 -4.746e-10 0)
(2.03653 5.28372e-11 0)
(2.03653 6.64358e-10 0)
(2.05014 7.10685e-10 0)
(2.05014 6.85588e-10 0)
(2.05014 5.59389e-10 0)
(2.05014 4.48213e-10 0)
(2.05014 3.62607e-10 0)
(2.05014 2.54834e-10 0)
(2.05014 1.45162e-10 0)
(2.05014 3.73226e-11 0)
(2.05014 -6.69492e-11 0)
(2.05014 -1.65161e-10 0)
(2.05014 -2.55735e-10 0)
(2.05014 -3.3859e-10 0)
(2.05014 -4.13475e-10 0)
(2.05014 -4.80045e-10 0)
(2.05014 -5.32298e-10 0)
(2.05014 -5.66618e-10 0)
(2.05014 -5.45047e-10 0)
(2.05014 -3.99597e-10 0)
(2.05014 3.48245e-11 0)
(2.05014 5.25373e-10 0)
(2.06245 5.25605e-10 0)
(2.06245 4.9375e-10 0)
(2.06245 3.80309e-10 0)
(2.06245 2.85348e-10 0)
(2.06245 2.13403e-10 0)
(2.06245 1.26737e-10 0)
(2.06245 4.2986e-11 0)
(2.06245 -3.57593e-11 0)
(2.06245 -1.05506e-10 0)
(2.06245 -1.64308e-10 0)
(2.06245 -2.1214e-10 0)
(2.06245 -2.48803e-10 0)
(2.06245 -2.81085e-10 0)
(2.06245 -3.09802e-10 0)
(2.06245 -3.31177e-10 0)
(2.06245 -3.42498e-10 0)
(2.06245 -3.24143e-10 0)
(2.06245 -2.2242e-10 0)
(2.06245 8.83214e-11 0)
(2.06245 4.20299e-10 0)
(2.07309 2.41812e-10 0)
(2.07309 3.23501e-10 0)
(2.07309 3.56355e-10 0)
(2.07309 3.49729e-10 0)
(2.07309 3.11571e-10 0)
(2.07309 2.70346e-10 0)
(2.07309 1.88106e-10 0)
(2.07309 7.8056e-11 0)
(2.07309 -6.62897e-11 0)
(2.07309 -1.20894e-10 0)
(2.07309 -1.04178e-10 0)
(2.07309 -9.31959e-11 0)
(2.07309 -1.17081e-10 0)
(2.07309 -1.67765e-10 0)
(2.07309 -2.39018e-10 0)
(2.07309 -3.23121e-10 0)
(2.07309 -4.11105e-10 0)
(2.07309 -3.70641e-10 0)
(2.07309 -1.70409e-10 0)
(2.07309 6.44495e-11 0)
(2.08174 1.80587e-10 0)
(2.08174 1.39342e-10 0)
(2.08174 8.59989e-11 0)
(2.08174 4.65715e-11 0)
(2.08174 1.58644e-12 0)
(2.08174 -2.59838e-11 0)
(2.08174 -8.03289e-12 0)
(2.08174 7.55862e-12 0)
(2.08174 -1.83293e-11 0)
(2.08174 -4.66802e-11 0)
(2.08174 -8.13687e-11 0)
(2.08174 -1.02395e-10 0)
(2.08174 -1.18271e-10 0)
(2.08174 -1.32898e-10 0)
(2.08174 -1.32113e-10 0)
(2.08174 -1.07615e-10 0)
(2.08174 -2.85313e-11 0)
(2.08174 4.56777e-11 0)
(2.08174 1.15051e-10 0)
(2.08174 1.78877e-10 0)
(2.08822 1.40722e-10 0)
(2.08822 6.28661e-11 0)
(2.08822 -2.9035e-11 0)
(2.08822 -7.87799e-11 0)
(2.08822 -9.82595e-11 0)
(2.08822 -1.02258e-10 0)
(2.08822 -7.10623e-11 0)
(2.08822 -2.92779e-11 0)
(2.08822 2.67127e-11 0)
(2.08822 1.15273e-11 0)
(2.08822 -8.36248e-11 0)
(2.08822 -1.35306e-10 0)
(2.08822 -1.53976e-10 0)
(2.08822 -1.38461e-10 0)
(2.08822 -9.09533e-11 0)
(2.08822 -1.38171e-11 0)
(2.08822 1.01417e-10 0)
(2.08822 1.90871e-10 0)
(2.08822 2.58251e-10 0)
(2.08822 2.32158e-10 0)
(2.09258 1.9716e-12 0)
(2.09258 -7.49387e-12 0)
(2.09258 -2.13943e-11 0)
(2.09258 -2.56274e-11 0)
(2.09258 -2.97646e-11 0)
(2.09258 -3.08828e-11 0)
(2.09258 -2.93004e-11 0)
(2.09258 -2.59698e-11 0)
(2.09258 -2.17625e-11 0)
(2.09258 -1.8878e-11 0)
(2.09258 -1.57981e-11 0)
(2.09258 -1.07596e-11 0)
(2.09258 -2.97072e-12 0)
(2.09258 6.90391e-12 0)
(2.09258 1.86901e-11 0)
(2.09258 3.14267e-11 0)
(2.09258 4.77639e-11 0)
(2.09258 6.09923e-11 0)
(2.09258 5.31222e-11 0)
(2.09258 2.07864e-11 0)
(2.09507 -3.45608e-11 0)
(2.09507 -3.71078e-11 0)
(2.09507 -3.46692e-11 0)
(2.09507 -3.29388e-11 0)
(2.09507 -2.79244e-11 0)
(2.09507 -2.1135e-11 0)
(2.09507 -1.58436e-11 0)
(2.09507 -9.82544e-12 0)
(2.09507 -3.02006e-12 0)
(2.09507 3.37073e-12 0)
(2.09507 8.84836e-12 0)
(2.09507 1.40694e-11 0)
(2.09507 1.94469e-11 0)
(2.09507 2.51002e-11 0)
(2.09507 3.09218e-11 0)
(2.09507 3.70508e-11 0)
(2.09507 3.89505e-11 0)
(2.09507 3.5941e-11 0)
(2.09507 1.63624e-11 0)
(2.09507 -1.41026e-11 0)
(2.09603 3.17945e-11 0)
(2.09603 2.65148e-11 0)
(2.09603 -7.61797e-12 0)
(2.09603 -5.0201e-12 0)
(2.09603 -3.02775e-11 0)
(2.09603 -2.50007e-11 0)
(2.09603 -1.72906e-11 0)
(2.09603 -1.03922e-11 0)
(2.09603 -4.73871e-12 0)
(2.09603 -8.01904e-13 0)
(2.09603 1.55255e-12 0)
(2.09603 2.4234e-12 0)
(2.09603 1.50546e-12 0)
(2.09603 -6.31927e-13 0)
(2.09603 -3.15861e-12 0)
(2.09603 -5.62085e-12 0)
(2.09603 -1.1523e-12 0)
(2.09603 -2.99678e-12 0)
(2.09603 2.92354e-11 0)
(2.09603 2.26464e-11 0)
(2.09578 -1.2296e-11 0)
(2.09578 -1.77907e-11 0)
(2.09578 -2.33655e-11 0)
(2.09578 -7.6048e-12 0)
(2.09578 -6.1153e-13 0)
(2.09578 6.30523e-12 0)
(2.09578 1.01148e-11 0)
(2.09578 1.38519e-11 0)
(2.09578 1.69369e-11 0)
(2.09578 1.86288e-11 0)
(2.09578 1.87227e-11 0)
(2.09578 1.70201e-11 0)
(2.09578 1.41613e-11 0)
(2.09578 9.99559e-12 0)
(2.09578 4.19909e-12 0)
(2.09578 -3.1377e-12 0)
(2.09578 -1.19737e-11 0)
(2.09578 -1.87945e-11 0)
(2.09578 -1.71232e-11 0)
(2.09578 -1.79748e-11 0)
(2.09462 3.0434e-11 0)
(2.09462 2.28723e-11 0)
(2.09462 9.11502e-12 0)
(2.09462 1.10732e-11 0)
(2.09462 1.03465e-11 0)
(2.09462 8.57761e-12 0)
(2.09462 7.13639e-12 0)
(2.09462 5.48088e-12 0)
(2.09462 3.47994e-12 0)
(2.09462 1.01316e-12 0)
(2.09462 -1.96998e-12 0)
(2.09462 -5.50642e-12 0)
(2.09462 -9.62355e-12 0)
(2.09462 -1.43284e-11 0)
(2.09462 -1.95879e-11 0)
(2.09462 -2.43897e-11 0)
(2.09462 -2.73784e-11 0)
(2.09462 -2.37103e-11 0)
(2.09462 -2.80097e-12 0)
(2.09462 2.04096e-11 0)
(2.0927 5.20327e-11 0)
(2.0927 4.38763e-11 0)
(2.0927 2.69207e-11 0)
(2.0927 2.05358e-11 0)
(2.0927 1.45469e-11 0)
(2.0927 7.57729e-12 0)
(2.0927 3.19316e-12 0)
(2.0927 -1.57445e-12 0)
(2.0927 -6.36508e-12 0)
(2.0927 -1.0941e-11 0)
(2.0927 -1.53081e-11 0)
(2.0927 -1.94523e-11 0)
(2.0927 -2.34023e-11 0)
(2.0927 -2.70403e-11 0)
(2.0927 -3.00849e-11 0)
(2.0927 -3.18029e-11 0)
(2.0927 -2.98579e-11 0)
(2.0927 -2.03573e-11 0)
(2.0927 7.71643e-12 0)
(2.0927 3.9264e-11 0)
(2.09013 6.10948e-11 0)
(2.09013 5.25472e-11 0)
(2.09013 3.47508e-11 0)
(2.09013 2.52639e-11 0)
(2.09013 1.69791e-11 0)
(2.09013 7.75565e-12 0)
(2.09013 1.15607e-12 0)
(2.09013 -5.69803e-12 0)
(2.09013 -1.20947e-11 0)
(2.09013 -1.77679e-11 0)
(2.09013 -2.27272e-11 0)
(2.09013 -2.69608e-11 0)
(2.09013 -3.0454e-11 0)
(2.09013 -3.30724e-11 0)
(2.09013 -3.41181e-11 0)
(2.09013 -3.31735e-11 0)
(2.09013 -2.84454e-11 0)
(2.09013 -1.5195e-11 0)
(2.09013 1.38076e-11 0)
(2.09013 4.65364e-11 0)
(2.08694 5.93185e-11 0)
(2.08694 5.24237e-11 0)
(2.08694 3.6173e-11 0)
(2.08694 2.58989e-11 0)
(2.08694 1.71052e-11 0)
(2.08694 7.48215e-12 0)
(2.08694 2.79266e-13 0)
(2.08694 -7.06265e-12 0)
(2.08694 -1.37706e-11 0)
(2.08694 -1.958e-11 0)
(2.08694 -2.44865e-11 0)
(2.08694 -2.84709e-11 0)
(2.08694 -3.14888e-11 0)
(2.08694 -3.33337e-11 0)
(2.08694 -3.33875e-11 0)
(2.08694 -3.13476e-11 0)
(2.08694 -2.50878e-11 0)
(2.08694 -1.12483e-11 0)
(2.08694 1.5137e-11 0)
(2.08694 4.54633e-11 0)
(2.08316 5.84192e-11 0)
(2.08316 5.2932e-11 0)
(2.08316 3.82515e-11 0)
(2.08316 2.68031e-11 0)
(2.08316 1.73641e-11 0)
(2.08316 7.25643e-12 0)
(2.08316 -6.04403e-13 0)
(2.08316 -8.43308e-12 0)
(2.08316 -1.5422e-11 0)
(2.08316 -2.13282e-11 0)
(2.08316 -2.61466e-11 0)
(2.08316 -2.98598e-11 0)
(2.08316 -3.23951e-11 0)
(2.08316 -3.34227e-11 0)
(2.08316 -3.254e-11 0)
(2.08316 -2.9679e-11 0)
(2.08316 -2.23472e-11 0)
(2.08316 -8.27681e-12 0)
(2.08316 1.56076e-11 0)
(2.08316 4.4143e-11 0)
(2.07884 4.84421e-11 0)
(2.07884 4.42549e-11 0)
(2.07884 3.26853e-11 0)
(2.07884 2.28543e-11 0)
(2.07884 1.48973e-11 0)
(2.07884 6.40053e-12 0)
(2.07884 -1.33886e-13 0)
(2.07884 -6.72373e-12 0)
(2.07884 -1.27162e-11 0)
(2.07884 -1.78232e-11 0)
(2.07884 -2.20295e-11 0)
(2.07884 -2.53169e-11 0)
(2.07884 -2.7609e-11 0)
(2.07884 -2.87001e-11 0)
(2.07884 -2.80189e-11 0)
(2.07884 -2.52294e-11 0)
(2.07884 -1.86142e-11 0)
(2.07884 -6.37635e-12 0)
(2.07884 1.30591e-11 0)
(2.07884 3.65609e-11 0)
(2.07401 3.65989e-11 0)
(2.07401 3.29639e-11 0)
(2.07401 2.43842e-11 0)
(2.07401 1.80774e-11 0)
(2.07401 1.24386e-11 0)
(2.07401 6.04587e-12 0)
(2.07401 1.50639e-12 0)
(2.07401 -3.35336e-12 0)
(2.07401 -8.0192e-12 0)
(2.07401 -1.21573e-11 0)
(2.07401 -1.57286e-11 0)
(2.07401 -1.87041e-11 0)
(2.07401 -2.10162e-11 0)
(2.07401 -2.25019e-11 0)
(2.07401 -2.2485e-11 0)
(2.07401 -2.08045e-11 0)
(2.07401 -1.59222e-11 0)
(2.07401 -6.51889e-12 0)
(2.07401 8.38585e-12 0)
(2.07401 2.68166e-11 0)
(2.06871 3.39839e-11 0)
(2.06871 3.12045e-11 0)
(2.06871 2.39497e-11 0)
(2.06871 1.79637e-11 0)
(2.06871 1.24285e-11 0)
(2.06871 6.1463e-12 0)
(2.06871 1.82688e-12 0)
(2.06871 -2.89985e-12 0)
(2.06871 -7.41958e-12 0)
(2.06871 -1.14082e-11 0)
(2.06871 -1.48315e-11 0)
(2.06871 -1.7661e-11 0)
(2.06871 -1.98387e-11 0)
(2.06871 -2.11981e-11 0)
(2.06871 -2.11805e-11 0)
(2.06871 -1.95486e-11 0)
(2.06871 -1.5038e-11 0)
(2.06871 -6.55692e-12 0)
(2.06871 6.4461e-12 0)
(2.06871 2.3867e-11 0)
(2.06299 3.06145e-11 0)
(2.06299 2.88672e-11 0)
(2.06299 2.30396e-11 0)
(2.06299 1.691e-11 0)
(2.06299 1.15886e-11 0)
(2.06299 5.71897e-12 0)
(2.06299 1.69802e-12 0)
(2.06299 -2.70617e-12 0)
(2.06299 -6.91574e-12 0)
(2.06299 -1.06202e-11 0)
(2.06299 -1.37861e-11 0)
(2.06299 -1.63886e-11 0)
(2.06299 -1.83759e-11 0)
(2.06299 -1.9599e-11 0)
(2.06299 -1.95313e-11 0)
(2.06299 -1.79801e-11 0)
(2.06299 -1.37769e-11 0)
(2.06299 -5.95371e-12 0)
(2.06299 5.52509e-12 0)
(2.06299 2.13098e-11 0)
(2.05691 2.6224e-11 0)
(2.05691 2.50878e-11 0)
(2.05691 2.05887e-11 0)
(2.05691 1.50574e-11 0)
(2.05691 1.02515e-11 0)
(2.05691 4.96421e-12 0)
(2.05691 1.45893e-12 0)
(2.05691 -2.43034e-12 0)
(2.05691 -6.16841e-12 0)
(2.05691 -9.44365e-12 0)
(2.05691 -1.22185e-11 0)
(2.05691 -1.44691e-11 0)
(2.05691 -1.61511e-11 0)
(2.05691 -1.71388e-11 0)
(2.05691 -1.69585e-11 0)
(2.05691 -1.5464e-11 0)
(2.05691 -1.16402e-11 0)
(2.05691 -4.69171e-12 0)
(2.05691 5.06551e-12 0)
(2.05691 1.83668e-11 0)
(2.05051 2.20377e-11 0)
(2.05051 2.1358e-11 0)
(2.05051 1.78965e-11 0)
(2.05051 1.27903e-11 0)
(2.05051 8.39547e-12 0)
(2.05051 3.62084e-12 0)
(2.05051 5.3217e-13 0)
(2.05051 -2.86326e-12 0)
(2.05051 -6.10083e-12 0)
(2.05051 -8.87469e-12 0)
(2.05051 -1.11451e-11 0)
(2.05051 -1.28898e-11 0)
(2.05051 -1.40744e-11 0)
(2.05051 -1.45845e-11 0)
(2.05051 -1.40485e-11 0)
(2.05051 -1.2369e-11 0)
(2.05051 -8.71416e-12 0)
(2.05051 -2.5463e-12 0)
(2.05051 5.48303e-12 0)
(2.05051 1.59776e-11 0)
(2.04387 1.82667e-11 0)
(2.04387 1.78753e-11 0)
(2.04387 1.50976e-11 0)
(2.04387 1.01717e-11 0)
(2.04387 6.03192e-12 0)
(2.04387 1.65246e-12 0)
(2.04387 -1.13222e-12 0)
(2.04387 -4.08206e-12 0)
(2.04387 -6.80358e-12 0)
(2.04387 -9.0043e-12 0)
(2.04387 -1.06433e-11 0)
(2.04387 -1.16963e-11 0)
(2.04387 -1.21122e-11 0)
(2.04387 -1.17535e-11 0)
(2.04387 -1.06621e-11 0)
(2.04387 -8.46808e-12 0)
(2.04387 -4.68161e-12 0)
(2.04387 8.21068e-13 0)
(2.04387 6.97988e-12 0)
(2.04387 1.42818e-11 0)
(2.03706 1.49969e-11 0)
(2.03706 1.47443e-11 0)
(2.03706 1.22511e-11 0)
(2.03706 7.23383e-12 0)
(2.03706 3.15399e-12 0)
(2.03706 -1.00729e-12 0)
(2.03706 -3.56372e-12 0)
(2.03706 -6.1293e-12 0)
(2.03706 -8.33719e-12 0)
(2.03706 -9.91063e-12 0)
(2.03706 -1.08108e-11 0)
(2.03706 -1.09724e-11 0)
(2.03706 -1.03259e-11 0)
(2.03706 -9.04023e-12 0)
(2.03706 -6.93096e-12 0)
(2.03706 -3.84269e-12 0)
(2.03706 4.20551e-13 0)
(2.03706 5.43975e-12 0)
(2.03706 9.50035e-12 0)
(2.03706 1.32105e-11 0)
(2.03017 1.24112e-11 0)
(2.03017 1.22056e-11 0)
(2.03017 9.60452e-12 0)
(2.03017 4.25121e-12 0)
(2.03017 5.50829e-14 0)
(2.03017 -4.07677e-12 0)
(2.03017 -6.49105e-12 0)
(2.03017 -8.76344e-12 0)
(2.03017 -1.05065e-11 0)
(2.03017 -1.14493e-11 0)
(2.03017 -1.14833e-11 0)
(2.03017 -1.06206e-11 0)
(2.03017 -9.00333e-12 0)
(2.03017 -6.52342e-12 0)
(2.03017 -3.15039e-12 0)
(2.03017 1.11375e-12 0)
(2.03017 6.15455e-12 0)
(2.03017 1.0886e-11 0)
(2.03017 1.2766e-11 0)
(2.03017 1.27623e-11 0)
(2.02332 1.02857e-11 0)
(2.02332 1.0091e-11 0)
(2.02332 7.15836e-12 0)
(2.02332 1.41525e-12 0)
(2.02332 -2.93298e-12 0)
(2.02332 -7.06072e-12 0)
(2.02332 -9.41227e-12 0)
(2.02332 -1.14138e-11 0)
(2.02332 -1.27206e-11 0)
(2.02332 -1.30105e-11 0)
(2.02332 -1.22136e-11 0)
(2.02332 -1.05691e-11 0)
(2.02332 -7.94333e-12 0)
(2.02332 -4.32392e-12 0)
(2.02332 2.66429e-13 0)
(2.02332 5.70732e-12 0)
(2.02332 1.16069e-11 0)
(2.02332 1.62234e-11 0)
(2.02332 1.62025e-11 0)
(2.02332 1.23661e-11 0)
(2.01666 9.72709e-12 0)
(2.01666 9.70196e-12 0)
(2.01666 6.26927e-12 0)
(2.01666 1.24276e-13 0)
(2.01666 -4.44505e-12 0)
(2.01666 -8.44226e-12 0)
(2.01666 -1.11518e-11 0)
(2.01666 -1.30368e-11 0)
(2.01666 -1.404e-11 0)
(2.01666 -1.37427e-11 0)
(2.01666 -1.24846e-11 0)
(2.01666 -1.05002e-11 0)
(2.01666 -7.50322e-12 0)
(2.01666 -3.38965e-12 0)
(2.01666 1.75699e-12 0)
(2.01666 7.79111e-12 0)
(2.01666 1.42283e-11 0)
(2.01666 1.89385e-11 0)
(2.01666 1.79494e-11 0)
(2.01666 1.24822e-11 0)
(2.01045 2.09032e-11 0)
(2.01045 1.84705e-11 0)
(2.01045 7.90524e-12 0)
(2.01045 -7.15341e-12 0)
(2.01045 -1.7166e-11 0)
(2.01045 -2.51488e-11 0)
(2.01045 -2.34784e-11 0)
(2.01045 -1.31208e-11 0)
(2.01045 -6.91009e-12 0)
(2.01045 -2.77073e-12 0)
(2.01045 -8.3324e-13 0)
(2.01045 -1.47241e-12 0)
(2.01045 -3.50866e-12 0)
(2.01045 -7.49982e-12 0)
(2.01045 -7.88233e-12 0)
(2.01045 -5.36064e-12 0)
(2.01045 4.39596e-12 0)
(2.01045 2.18962e-11 0)
(2.01045 2.55719e-11 0)
(2.01045 2.28839e-11 0)
(2.00498 1.98916e-11 0)
(2.00498 2.40939e-11 0)
(2.00498 1.99647e-11 0)
(2.00498 1.00608e-11 0)
(2.00498 -2.61766e-12 0)
(2.00498 -9.7008e-12 0)
(2.00498 -1.22578e-11 0)
(2.00498 -1.32887e-11 0)
(2.00498 -1.2803e-11 0)
(2.00498 -1.1739e-11 0)
(2.00498 -1.01823e-11 0)
(2.00498 -8.14671e-12 0)
(2.00498 -7.06177e-12 0)
(2.00498 -1.04232e-11 0)
(2.00498 -1.28016e-11 0)
(2.00498 -8.0771e-12 0)
(2.00498 1.71231e-12 0)
(2.00498 1.29177e-11 0)
(2.00498 1.49076e-11 0)
(2.00498 1.6043e-11 0)
(2.00063 2.97663e-12 0)
(2.00063 5.52787e-12 0)
(2.00063 7.51159e-12 0)
(2.00063 1.03536e-11 0)
(2.00063 1.23712e-11 0)
(2.00063 1.24374e-11 0)
(2.00063 7.82274e-12 0)
(2.00063 -6.92807e-12 0)
(2.00063 -1.62952e-11 0)
(2.00063 -2.2428e-11 0)
(2.00063 -2.37008e-11 0)
(2.00063 -2.07944e-11 0)
(2.00063 -1.52589e-11 0)
(2.00063 -4.6473e-12 0)
(2.00063 4.51441e-12 0)
(2.00063 1.39308e-11 0)
(2.00063 1.61864e-11 0)
(2.00063 1.0349e-11 0)
(2.00063 4.4551e-12 0)
(2.00063 1.52993e-12 0)
(1.99769 1.38733e-11 0)
(1.99769 1.43418e-11 0)
(1.99769 1.09192e-11 0)
(1.99769 5.72446e-12 0)
(1.99769 2.09255e-12 0)
(1.99769 -8.9362e-13 0)
(1.99769 -4.41427e-12 0)
(1.99769 -6.50985e-12 0)
(1.99769 -8.38351e-12 0)
(1.99769 -9.6062e-12 0)
(1.99769 -9.99955e-12 0)
(1.99769 -9.63757e-12 0)
(1.99769 -8.70982e-12 0)
(1.99769 -7.26565e-12 0)
(1.99769 -5.05621e-12 0)