/*--------------------------------*- C++ -*----------------------------------*\
| =========                 |                                                 |
| \\      /  F ield         | OpenFOAM: The Open Source CFD Toolbox           |
|  \\    /   O peration     | Version:  v1906                                 |
|   \\  /    A nd           | Web:      www.OpenFOAM.com                      |
|    \\/     M anipulation  |                                                 |
\*---------------------------------------------------------------------------*/
FoamFile
{
    version     2.0;
    format      ascii;
    class       volVectorField;
    location    "19.44";
    object      U_0;
}
// * * * * * * * * * * * * * * * * * * * * * * * * * * * * * * * * * * * * * //

dimensions      [0 1 -1 0 0 0 0];


internalField   nonuniform List<vector> 
1380
(
(0.789391 1.28356e-09 0)
(0.789391 1.03062e-09 0)
(0.789391 7.98804e-10 0)
(0.789391 5.6902e-10 0)
(0.789391 3.89161e-10 0)
(0.789391 2.45642e-10 0)
(0.789391 1.29836e-10 0)
(0.789391 3.49377e-11 0)
(0.789391 -4.34857e-11 0)
(0.789391 -1.10105e-10 0)
(0.789391 -1.68796e-10 0)
(0.789391 -2.23118e-10 0)
(0.789391 -2.76492e-10 0)
(0.789391 -3.33658e-10 0)
(0.789391 -4.02487e-10 0)
(0.789391 -4.71394e-10 0)
(0.789391 -5.7713e-10 0)
(0.789391 -6.72029e-10 0)
(0.789391 -9.44805e-10 0)
(0.789391 -2.37659e-10 0)
(1.063 3.1567e-10 0)
(1.063 2.24229e-10 0)
(1.063 1.51494e-10 0)
(1.063 1.23147e-10 0)
(1.063 1.09366e-10 0)
(1.063 1.01476e-10 0)
(1.063 9.79041e-11 0)
(1.063 9.47954e-11 0)
(1.063 8.9367e-11 0)
(1.063 7.99065e-11 0)
(1.063 6.38737e-11 0)
(1.063 4.36092e-11 0)
(1.063 1.89681e-11 0)
(1.063 -1.1537e-11 0)
(1.063 -4.92665e-11 0)
(1.063 -9.57895e-11 0)
(1.063 -1.57104e-10 0)
(1.063 -2.47647e-10 0)
(1.063 -5.90142e-10 0)
(1.063 -3.49526e-10 0)
(1.20368 -4.61595e-11 0)
(1.20368 -6.6326e-12 0)
(1.20368 9.23073e-11 0)
(1.20368 1.42149e-10 0)
(1.20368 1.68031e-10 0)
(1.20368 1.85523e-10 0)
(1.20368 1.85029e-10 0)
(1.20368 1.74673e-10 0)
(1.20368 1.56972e-10 0)
(1.20368 1.28723e-10 0)
(1.20368 9.40946e-11 0)
(1.20368 5.54841e-11 0)
(1.20368 1.46674e-11 0)
(1.20368 -2.67553e-11 0)
(1.20368 -6.59194e-11 0)
(1.20368 -1.02075e-10 0)
(1.20368 -1.33798e-10 0)
(1.20368 -1.8451e-10 0)
(1.20368 -4.50665e-10 0)
(1.20368 -3.80606e-10 0)
(1.30071 -3.35679e-10 0)
(1.30071 -2.58658e-10 0)
(1.30071 -1.03424e-10 0)
(1.30071 -5.1635e-12 0)
(1.30071 5.18271e-11 0)
(1.30071 1.12878e-10 0)
(1.30071 1.55649e-10 0)
(1.30071 1.79903e-10 0)
(1.30071 1.89206e-10 0)
(1.30071 1.8712e-10 0)
(1.30071 1.74542e-10 0)
(1.30071 1.53658e-10 0)
(1.30071 1.26646e-10 0)
(1.30071 9.55703e-11 0)
(1.30071 6.20118e-11 0)
(1.30071 2.65197e-11 0)
(1.30071 -1.26519e-11 0)
(1.30071 -8.69244e-11 0)
(1.30071 -3.0416e-10 0)
(1.30071 -4.10292e-10 0)
(1.37487 -4.49946e-10 0)
(1.37487 -3.81073e-10 0)
(1.37487 -1.92321e-10 0)
(1.37487 -6.02153e-11 0)
(1.37487 2.43221e-11 0)
(1.37487 1.13335e-10 0)
(1.37487 1.79574e-10 0)
(1.37487 2.22891e-10 0)
(1.37487 2.45347e-10 0)
(1.37487 2.49849e-10 0)
(1.37487 2.41063e-10 0)
(1.37487 2.20098e-10 0)
(1.37487 1.8895e-10 0)
(1.37487 1.49565e-10 0)
(1.37487 1.03429e-10 0)
(1.37487 5.03432e-11 0)
(1.37487 -1.74559e-11 0)
(1.37487 -1.19193e-10 0)
(1.37487 -3.0222e-10 0)
(1.37487 -4.65285e-10 0)
(1.43507 -4.62354e-10 0)
(1.43507 -4.01729e-10 0)
(1.43507 -2.14848e-10 0)
(1.43507 -7.53727e-11 0)
(1.43507 1.74817e-11 0)
(1.43507 1.14063e-10 0)
(1.43507 1.8746e-10 0)
(1.43507 2.37474e-10 0)
(1.43507 2.66416e-10 0)
(1.43507 2.74065e-10 0)
(1.43507 2.6527e-10 0)
(1.43507 2.44686e-10 0)
(1.43507 2.10282e-10 0)
(1.43507 1.63676e-10 0)
(1.43507 1.05198e-10 0)
(1.43507 3.34705e-11 0)
(1.43507 -5.81871e-11 0)
(1.43507 -1.74736e-10 0)
(1.43507 -3.09837e-10 0)
(1.43507 -4.23895e-10 0)
(1.48587 -3.95588e-10 0)
(1.48587 -3.37002e-10 0)
(1.48587 -1.65316e-10 0)
(1.48587 -3.28589e-11 0)
(1.48587 5.49569e-11 0)
(1.48587 1.44453e-10 0)
(1.48587 2.09545e-10 0)
(1.48587 2.51621e-10 0)
(1.48587 2.71603e-10 0)
(1.48587 2.69874e-10 0)
(1.48587 2.54175e-10 0)
(1.48587 2.26938e-10 0)
(1.48587 1.83947e-10 0)
(1.48587 1.26894e-10 0)
(1.48587 5.52677e-11 0)
(1.48587 -3.27067e-11 0)
(1.48587 -1.4051e-10 0)
(1.48587 -2.53651e-10 0)
(1.48587 -3.22054e-10 0)
(1.48587 -3.66774e-10 0)
(1.52991 -2.47144e-10 0)
(1.52991 -1.81606e-10 0)
(1.52991 -6.66679e-11 0)
(1.52991 4.31473e-11 0)
(1.52991 1.12134e-10 0)
(1.52991 1.75922e-10 0)
(1.52991 2.15286e-10 0)
(1.52991 2.33161e-10 0)
(1.52991 2.33611e-10 0)
(1.52991 2.19772e-10 0)
(1.52991 1.9325e-10 0)
(1.52991 1.55899e-10 0)
(1.52991 1.07671e-10 0)
(1.52991 4.73389e-11 0)
(1.52991 -2.75395e-11 0)
(1.52991 -1.19666e-10 0)
(1.52991 -2.29288e-10 0)
(1.52991 -3.17645e-10 0)
(1.52991 -3.00638e-10 0)
(1.52991 -2.51917e-10 0)
(1.56887 8.8083e-12 0)
(1.56887 5.88886e-11 0)
(1.56887 1.28554e-10 0)
(1.56887 1.9e-10 0)
(1.56887 2.19431e-10 0)
(1.56887 2.2901e-10 0)
(1.56887 2.14855e-10 0)
(1.56887 1.87053e-10 0)
(1.56887 1.45181e-10 0)
(1.56887 9.34458e-11 0)
(1.56887 4.04575e-11 0)
(1.56887 -1.22349e-11 0)
(1.56887 -6.3435e-11 0)
(1.56887 -1.11326e-10 0)
(1.56887 -1.66751e-10 0)
(1.56887 -2.36901e-10 0)
(1.56887 -3.20052e-10 0)
(1.56887 -3.28857e-10 0)
(1.56887 -2.16108e-10 0)
(1.56887 -4.84922e-11 0)
(1.60387 3.93734e-10 0)
(1.60387 3.95646e-10 0)
(1.60387 3.67477e-10 0)
(1.60387 3.15996e-10 0)
(1.60387 2.60411e-10 0)
(1.60387 1.94727e-10 0)
(1.60387 1.16755e-10 0)
(1.60387 3.19025e-11 0)
(1.60387 -5.64081e-11 0)
(1.60387 -1.38882e-10 0)
(1.60387 -2.1591e-10 0)
(1.60387 -2.7075e-10 0)
(1.60387 -2.89814e-10 0)
(1.60387 -2.84288e-10 0)
(1.60387 -2.70233e-10 0)
(1.60387 -2.83328e-10 0)
(1.60387 -2.98634e-10 0)
(1.60387 -2.47e-10 0)
(1.60387 -2.5032e-11 0)
(1.60387 2.77337e-10 0)
(1.63568 8.16911e-10 0)
(1.63568 7.20497e-10 0)
(1.63568 4.84378e-10 0)
(1.63568 3.54019e-10 0)
(1.63568 2.34756e-10 0)
(1.63568 1.09971e-10 0)
(1.63568 -6.3994e-11 0)
(1.63568 -2.9312e-10 0)
(1.63568 -5.26673e-10 0)
(1.63568 -7.74431e-10 0)
(1.63568 -8.08408e-10 0)
(1.63568 -7.54272e-10 0)
(1.63568 -6.41013e-10 0)
(1.63568 -3.18764e-10 0)
(1.63568 -9.73465e-11 0)
(1.63568 7.19791e-12 0)
(1.63568 6.07307e-11 0)
(1.63568 1.68594e-10 0)
(1.63568 4.99914e-10 0)
(1.63568 8.39792e-10 0)
(1.66488 1.48765e-10 0)
(1.66488 3.37048e-10 0)
(1.66488 2.7783e-10 0)
(1.66488 2.82509e-10 0)
(1.66488 2.79501e-10 0)
(1.66488 2.47798e-10 0)
(1.66488 1.88236e-10 0)
(1.66488 1.2908e-10 0)
(1.66488 1.56497e-10 0)
(1.66488 3.63953e-10 0)
(1.66488 6.3352e-10 0)
(1.66488 5.11594e-10 0)
(1.66488 1.54654e-10 0)
(1.66488 -9.24554e-11 0)
(1.66488 -3.25814e-10 0)
(1.66488 -5.33096e-10 0)
(1.66488 -7.55803e-10 0)
(1.66488 -8.64185e-10 0)
(1.66488 -7.57599e-10 0)
(1.66488 -3.50429e-10 0)
(1.69198 -7.14061e-10 0)
(1.69198 -5.1895e-10 0)
(1.69198 -1.09394e-10 0)
(1.69198 1.4472e-10 0)
(1.69198 2.88632e-10 0)
(1.69198 3.85994e-10 0)
(1.69198 4.8404e-10 0)
(1.69198 6.02752e-10 0)
(1.69198 7.46263e-10 0)
(1.69198 9.74606e-10 0)
(1.69198 1.12169e-09 0)
(1.69198 1.07705e-09 0)
(1.69198 8.59687e-10 0)
(1.69198 3.4033e-10 0)
(1.69198 -2.16538e-10 0)
(1.69198 -6.85603e-10 0)
(1.69198 -1.09482e-09 0)
(1.69198 -1.36492e-09 0)
(1.69198 -1.30202e-09 0)
(1.69198 -1.03819e-09 0)
(1.71741 -9.63148e-11 0)
(1.71741 3.37693e-11 0)
(1.71741 1.10497e-10 0)
(1.71741 1.63427e-10 0)
(1.71741 1.8945e-10 0)
(1.71741 2.06085e-10 0)
(1.71741 2.28364e-10 0)
(1.71741 2.70665e-10 0)
(1.71741 3.32736e-10 0)
(1.71741 4.10826e-10 0)
(1.71741 4.82003e-10 0)
(1.71741 4.78707e-10 0)
(1.71741 3.50859e-10 0)
(1.71741 1.23044e-10 0)
(1.71741 -1.48926e-10 0)
(1.71741 -4.36657e-10 0)
(1.71741 -7.22583e-10 0)
(1.71741 -8.95498e-10 0)
(1.71741 -7.30663e-10 0)
(1.71741 -3.48211e-10 0)
(1.74143 1.94297e-10 0)
(1.74143 2.57356e-10 0)
(1.74143 2.75355e-10 0)
(1.74143 2.96058e-10 0)
(1.74143 3.04344e-10 0)
(1.74143 2.98072e-10 0)
(1.74143 2.86312e-10 0)
(1.74143 2.68718e-10 0)
(1.74143 2.5154e-10 0)
(1.74143 2.33911e-10 0)
(1.74143 2.06395e-10 0)
(1.74143 1.4996e-10 0)
(1.74143 4.90202e-11 0)
(1.74143 -1.00055e-10 0)
(1.74143 -2.88043e-10 0)
(1.74143 -5.06837e-10 0)
(1.74143 -7.33402e-10 0)
(1.74143 -8.19372e-10 0)
(1.74143 -5.53196e-10 0)
(1.74143 -7.16356e-11 0)
(1.76421 4.39386e-10 0)
(1.76421 4.97358e-10 0)
(1.76421 4.72861e-10 0)
(1.76421 4.47634e-10 0)
(1.76421 4.18551e-10 0)
(1.76421 3.70253e-10 0)
(1.76421 3.18389e-10 0)
(1.76421 2.58634e-10 0)
(1.76421 1.93702e-10 0)
(1.76421 1.23723e-10 0)
(1.76421 4.59108e-11 0)
(1.76421 -4.61218e-11 0)
(1.76421 -1.59302e-10 0)
(1.76421 -2.96442e-10 0)
(1.76421 -4.56148e-10 0)
(1.76421 -6.35508e-10 0)
(1.76421 -8.02064e-10 0)
(1.76421 -8.21457e-10 0)
(1.76421 -4.80912e-10 0)
(1.76421 1.12414e-10 0)
(1.78586 6.01895e-10 0)
(1.78586 6.60886e-10 0)
(1.78586 6.05262e-10 0)
(1.78586 5.50412e-10 0)
(1.78586 4.98855e-10 0)
(1.78586 4.25864e-10 0)
(1.78586 3.47215e-10 0)
(1.78586 2.61128e-10 0)
(1.78586 1.68877e-10 0)
(1.78586 7.05072e-11 0)
(1.78586 -3.52484e-11 0)
(1.78586 -1.50717e-10 0)
(1.78586 -2.7829e-10 0)
(1.78586 -4.19194e-10 0)
(1.78586 -5.74966e-10 0)
(1.78586 -7.44409e-10 0)
(1.78586 -8.83429e-10 0)
(1.78586 -8.63224e-10 0)
(1.78586 -4.63972e-10 0)
(1.78586 2.22052e-10 0)
(1.80648 7.55734e-10 0)
(1.80648 8.20661e-10 0)
(1.80648 7.37799e-10 0)
(1.80648 6.54247e-10 0)
(1.80648 5.80073e-10 0)
(1.80648 4.7904e-10 0)
(1.80648 3.71253e-10 0)
(1.80648 2.57902e-10 0)
(1.80648 1.40108e-10 0)
(1.80648 1.80682e-11 0)
(1.80648 -1.08848e-10 0)
(1.80648 -2.41675e-10 0)
(1.80648 -3.81192e-10 0)
(1.80648 -5.27779e-10 0)
(1.80648 -6.84344e-10 0)
(1.80648 -8.50797e-10 0)
(1.80648 -9.69762e-10 0)
(1.80648 -9.13177e-10 0)
(1.80648 -4.56831e-10 0)
(1.80648 3.20186e-10 0)
(1.82616 8.99125e-10 0)
(1.82616 9.68627e-10 0)
(1.82616 8.59628e-10 0)
(1.82616 7.47536e-10 0)
(1.82616 6.50977e-10 0)
(1.82616 5.22912e-10 0)
(1.82616 3.88173e-10 0)
(1.82616 2.50501e-10 0)
(1.82616 1.10974e-10 0)
(1.82616 -3.02045e-11 0)
(1.82616 -1.73511e-10 0)
(1.82616 -3.1961e-10 0)
(1.82616 -4.68678e-10 0)
(1.82616 -6.2054e-10 0)
(1.82616 -7.7846e-10 0)
(1.82616 -9.43567e-10 0)
(1.82616 -1.05382e-09 0)
(1.82616 -9.71957e-10 0)
(1.82616 -4.51506e-10 0)
(1.82616 4.12715e-10 0)
(1.84503 1.10643e-09 0)
(1.84503 1.11821e-09 0)
(1.84503 9.64423e-10 0)
(1.84503 8.21835e-10 0)
(1.84503 7.02768e-10 0)
(1.84503 5.49043e-10 0)
(1.84503 3.89891e-10 0)
(1.84503 2.30154e-10 0)
(1.84503 7.14902e-11 0)
(1.84503 -8.59936e-11 0)
(1.84503 -2.42844e-10 0)
(1.84503 -3.99483e-10 0)
(1.84503 -5.55798e-10 0)
(1.84503 -7.1093e-10 0)
(1.84503 -8.68446e-10 0)
(1.84503 -1.03032e-09 0)
(1.84503 -1.13149e-09 0)
(1.84503 -1.02681e-09 0)
(1.84503 -4.40685e-10 0)
(1.84503 5.38678e-10 0)
(1.86362 1.19273e-09 0)
(1.86362 1.25939e-09 0)
(1.86362 1.08442e-09 0)
(1.86362 9.06218e-10 0)
(1.86362 7.60014e-10 0)
(1.86362 5.77406e-10 0)
(1.86362 3.93455e-10 0)
(1.86362 2.13158e-10 0)
(1.86362 3.77757e-11 0)
(1.86362 -1.33403e-10 0)
(1.86362 -3.01157e-10 0)
(1.86362 -4.66314e-10 0)
(1.86362 -6.28498e-10 0)
(1.86362 -7.85655e-10 0)
(1.86362 -9.42534e-10 0)
(1.86362 -1.10177e-09 0)
(1.86362 -1.19571e-09 0)
(1.86362 -1.06682e-09 0)
(1.86362 -4.1697e-10 0)
(1.86362 6.14832e-10 0)
(1.88232 1.40724e-09 0)
(1.88232 1.34104e-09 0)
(1.88232 1.14265e-09 0)
(1.88232 9.58347e-10 0)
(1.88232 8.05526e-10 0)
(1.88232 6.12097e-10 0)
(1.88232 4.12035e-10 0)
(1.88232 2.14448e-10 0)
(1.88232 2.28081e-11 0)
(1.88232 -1.62789e-10 0)
(1.88232 -3.43011e-10 0)
(1.88232 -5.18825e-10 0)
(1.88232 -6.89846e-10 0)
(1.88232 -8.53687e-10 0)
(1.88232 -1.01603e-09 0)
(1.88232 -1.18074e-09 0)
(1.88232 -1.27487e-09 0)
(1.88232 -1.14016e-09 0)
(1.88232 -4.5055e-10 0)
(1.88232 7.13459e-10 0)
(1.90112 1.22751e-09 0)
(1.90112 1.28456e-09 0)
(1.90112 1.12049e-09 0)
(1.90112 9.56447e-10 0)
(1.90112 8.24282e-10 0)
(1.90112 6.53474e-10 0)
(1.90112 4.6813e-10 0)
(1.90112 2.77371e-10 0)
(1.90112 8.53986e-11 0)
(1.90112 -1.05121e-10 0)
(1.90112 -2.93335e-10 0)
(1.90112 -4.79501e-10 0)
(1.90112 -6.62872e-10 0)
(1.90112 -8.41067e-10 0)
(1.90112 -1.021e-09 0)
(1.90112 -1.20931e-09 0)
(1.90112 -1.321e-09 0)
(1.90112 -1.18262e-09 0)
(1.90112 -4.46428e-10 0)
(1.90112 6.64876e-10 0)
(1.91994 1.42036e-09 0)
(1.91994 1.46477e-09 0)
(1.91994 1.23337e-09 0)
(1.91994 1.01381e-09 0)
(1.91994 8.41031e-10 0)
(1.91994 6.25578e-10 0)
(1.91994 4.09968e-10 0)
(1.91994 2.02457e-10 0)
(1.91994 3.46604e-12 0)
(1.91994 -1.88306e-10 0)
(1.91994 -3.7392e-10 0)
(1.91994 -5.5473e-10 0)
(1.91994 -7.30809e-10 0)
(1.91994 -9.00318e-10 0)
(1.91994 -1.07051e-09 0)
(1.91994 -1.24413e-09 0)
(1.91994 -1.33522e-09 0)
(1.91994 -1.19339e-09 0)
(1.91994 -4.14665e-10 0)
(1.91994 7.91673e-10 0)
(1.93862 1.59302e-09 0)
(1.93862 1.50055e-09 0)
(1.93862 1.23038e-09 0)
(1.93862 1.01498e-09 0)
(1.93862 8.37549e-10 0)
(1.93862 6.12869e-10 0)
(1.93862 3.89859e-10 0)
(1.93862 1.76e-10 0)
(1.93862 -2.8076e-11 0)
(1.93862 -2.23124e-10 0)
(1.93862 -4.09954e-10 0)
(1.93862 -5.89759e-10 0)
(1.93862 -7.62524e-10 0)
(1.93862 -9.25581e-10 0)
(1.93862 -1.08437e-09 0)
(1.93862 -1.24446e-09 0)
(1.93862 -1.32641e-09 0)
(1.93862 -1.1809e-09 0)
(1.93862 -4.24047e-10 0)
(1.93862 8.43663e-10 0)
(1.95688 1.35546e-09 0)
(1.95688 1.41557e-09 0)
(1.95688 1.20612e-09 0)
(1.95688 1.0112e-09 0)
(1.95688 8.53095e-10 0)
(1.95688 6.48998e-10 0)
(1.95688 4.37804e-10 0)
(1.95688 2.28565e-10 0)
(1.95688 2.52029e-11 0)
(1.95688 -1.71495e-10 0)
(1.95688 -3.61444e-10 0)
(1.95688 -5.45323e-10 0)
(1.95688 -7.22705e-10 0)
(1.95688 -8.90444e-10 0)
(1.95688 -1.05523e-09 0)
(1.95688 -1.22437e-09 0)
(1.95688 -1.31091e-09 0)
(1.95688 -1.17351e-09 0)
(1.95688 -4.45535e-10 0)
(1.95688 7.19007e-10 0)
(1.97442 1.45247e-09 0)
(1.97442 1.34908e-09 0)
(1.97442 1.09297e-09 0)
(1.97442 9.02172e-10 0)
(1.97442 7.53833e-10 0)
(1.97442 5.65188e-10 0)
(1.97442 3.71527e-10 0)
(1.97442 1.80912e-10 0)
(1.97442 -3.60388e-12 0)
(1.97442 -1.81912e-10 0)
(1.97442 -3.54193e-10 0)
(1.97442 -5.2125e-10 0)
(1.97442 -6.8282e-10 0)
(1.97442 -8.35731e-10 0)
(1.97442 -9.86343e-10 0)
(1.97442 -1.14312e-09 0)
(1.97442 -1.22412e-09 0)
(1.97442 -1.09262e-09 0)
(1.97442 -4.06479e-10 0)
(1.97442 7.64098e-10 0)
(1.99103 1.28536e-09 0)
(1.99103 1.30495e-09 0)
(1.99103 1.09358e-09 0)
(1.99103 8.95302e-10 0)
(1.99103 7.40526e-10 0)
(1.99103 5.4786e-10 0)
(1.99103 3.52013e-10 0)
(1.99103 1.6196e-10 0)
(1.99103 -1.96808e-11 0)
(1.99103 -1.93104e-10 0)
(1.99103 -3.58664e-10 0)
(1.99103 -5.17224e-10 0)
(1.99103 -6.68668e-10 0)
(1.99103 -8.09931e-10 0)
(1.99103 -9.46427e-10 0)
(1.99103 -1.087e-09 0)
(1.99103 -1.15153e-09 0)
(1.99103 -1.01008e-09 0)
(1.99103 -3.39825e-10 0)
(1.99103 7.20365e-10 0)
(2.00683 1.11298e-09 0)
(2.00683 1.07791e-09 0)
(2.00683 8.91112e-10 0)
(2.00683 7.2929e-10 0)
(2.00683 5.98772e-10 0)
(2.00683 4.32448e-10 0)
(2.00683 2.63834e-10 0)
(2.00683 9.92013e-11 0)
(2.00683 -5.95134e-11 0)
(2.00683 -2.11951e-10 0)
(2.00683 -3.57709e-10 0)
(2.00683 -4.96523e-10 0)
(2.00683 -6.27917e-10 0)
(2.00683 -7.5058e-10 0)
(2.00683 -8.59548e-10 0)
(2.00683 -9.4098e-10 0)
(2.00683 -9.22477e-10 0)
(2.00683 -7.02627e-10 0)
(2.00683 -3.97584e-11 0)
(2.00683 7.64295e-10 0)
(2.02205 1.03164e-09 0)
(2.02205 9.95967e-10 0)
(2.02205 8.16883e-10 0)
(2.02205 6.59957e-10 0)
(2.02205 5.35467e-10 0)
(2.02205 3.78445e-10 0)
(2.02205 2.20431e-10 0)
(2.02205 6.78356e-11 0)
(2.02205 -7.77333e-11 0)
(2.02205 -2.15929e-10 0)
(2.02205 -3.4638e-10 0)
(2.02205 -4.68852e-10 0)
(2.02205 -5.82891e-10 0)
(2.02205 -6.87546e-10 0)
(2.02205 -7.77677e-10 0)
(2.02205 -8.41529e-10 0)
(2.02205 -8.18838e-10 0)
(2.02205 -6.13544e-10 0)
(2.02205 -2.62061e-12 0)
(2.02205 7.26761e-10 0)
(2.03659 8.98004e-10 0)
(2.03659 8.50656e-10 0)
(2.03659 6.78347e-10 0)
(2.03659 5.33786e-10 0)
(2.03659 4.22486e-10 0)
(2.03659 2.84471e-10 0)
(2.03659 1.47706e-10 0)
(2.03659 1.88556e-11 0)
(2.03659 -1.01486e-10 0)
(2.03659 -2.13183e-10 0)
(2.03659 -3.16187e-10 0)
(2.03659 -4.10639e-10 0)
(2.03659 -4.96473e-10 0)
(2.03659 -5.73425e-10 0)
(2.03659 -6.36446e-10 0)
(2.03659 -6.77173e-10 0)
(2.03659 -6.5191e-10 0)
(2.03659 -4.7443e-10 0)
(2.03659 5.28225e-11 0)
(2.03659 6.64114e-10 0)
(2.05019 7.10196e-10 0)
(2.05019 6.85141e-10 0)
(2.05019 5.59055e-10 0)
(2.05019 4.47973e-10 0)
(2.05019 3.62443e-10 0)
(2.05019 2.54751e-10 0)
(2.05019 1.45151e-10 0)
(2.05019 3.73717e-11 0)
(2.05019 -6.68518e-11 0)
(2.05019 -1.65024e-10 0)
(2.05019 -2.55565e-10 0)
(2.05019 -3.3839e-10 0)
(2.05019 -4.13246e-10 0)
(2.05019 -4.79788e-10 0)
(2.05019 -5.32015e-10 0)
(2.05019 -5.66327e-10 0)
(2.05019 -5.44776e-10 0)
(2.05019 -3.9942e-10 0)
(2.05019 3.47582e-11 0)
(2.05019 5.25009e-10 0)
(2.0625 5.2509e-10 0)
(2.0625 4.93253e-10 0)
(2.0625 3.79892e-10 0)
(2.0625 2.85012e-10 0)
(2.0625 2.13132e-10 0)
(2.0625 1.26544e-10 0)
(2.0625 4.28679e-11 0)
(2.0625 -3.57986e-11 0)
(2.0625 -1.05467e-10 0)
(2.0625 -1.64192e-10 0)
(2.0625 -2.11952e-10 0)
(2.0625 -2.48556e-10 0)
(2.0625 -2.8078e-10 0)
(2.0625 -3.09443e-10 0)
(2.0625 -3.30778e-10 0)
(2.0625 -3.42076e-10 0)
(2.0625 -3.23741e-10 0)
(2.0625 -2.22128e-10 0)
(2.0625 8.8313e-11 0)
(2.0625 4.19877e-10 0)
(2.07314 2.41511e-10 0)
(2.07314 3.23179e-10 0)
(2.07314 3.56076e-10 0)
(2.07314 3.49502e-10 0)
(2.07314 3.11427e-10 0)
(2.07314 2.70251e-10 0)
(2.07314 1.88196e-10 0)
(2.07314 7.82386e-11 0)
(2.07314 -6.60334e-11 0)
(2.07314 -1.20732e-10 0)
(2.07314 -1.04067e-10 0)
(2.07314 -9.31925e-11 0)
(2.07314 -1.17013e-10 0)
(2.07314 -1.67795e-10 0)
(2.07314 -2.39008e-10 0)
(2.07314 -3.23035e-10 0)
(2.07314 -4.10895e-10 0)
(2.07314 -3.70395e-10 0)
(2.07314 -1.70328e-10 0)
(2.07314 6.43013e-11 0)
(2.08179 1.80272e-10 0)
(2.08179 1.39e-10 0)
(2.08179 8.56392e-11 0)
(2.08179 4.62271e-11 0)
(2.08179 1.22211e-12 0)
(2.08179 -2.64245e-11 0)
(2.08179 -8.64638e-12 0)
(2.08179 6.87445e-12 0)
(2.08179 -1.8846e-11 0)
(2.08179 -4.69528e-11 0)
(2.08179 -8.13322e-11 0)
(2.08179 -1.02172e-10 0)
(2.08179 -1.1789e-10 0)
(2.08179 -1.32301e-10 0)
(2.08179 -1.31405e-10 0)
(2.08179 -1.068e-10 0)
(2.08179 -2.77549e-11 0)
(2.08179 4.63038e-11 0)
(2.08179 1.15229e-10 0)
(2.08179 1.78733e-10 0)
(2.08826 1.40417e-10 0)
(2.08826 6.26503e-11 0)
(2.08826 -2.9136e-11 0)
(2.08826 -7.8796e-11 0)
(2.08826 -9.8237e-11 0)
(2.08826 -1.02258e-10 0)
(2.08826 -7.11104e-11 0)
(2.08826 -2.93713e-11 0)
(2.08826 2.65987e-11 0)
(2.08826 1.14685e-11 0)
(2.08826 -8.35626e-11 0)
(2.08826 -1.351e-10 0)
(2.08826 -1.53697e-10 0)
(2.08826 -1.38133e-10 0)
(2.08826 -9.06744e-11 0)
(2.08826 -1.35922e-11 0)
(2.08826 1.01538e-10 0)
(2.08826 1.90855e-10 0)
(2.08826 2.57985e-10 0)
(2.08826 2.31824e-10 0)
(2.09262 1.93004e-12 0)
(2.09262 -7.5469e-12 0)
(2.09262 -2.14489e-11 0)
(2.09262 -2.56878e-11 0)
(2.09262 -2.98293e-11 0)
(2.09262 -3.09525e-11 0)
(2.09262 -2.9374e-11 0)
(2.09262 -2.60411e-11 0)
(2.09262 -2.18217e-11 0)
(2.09262 -1.8916e-11 0)
(2.09262 -1.58048e-11 0)
(2.09262 -1.07294e-11 0)
(2.09262 -2.90383e-12 0)
(2.09262 6.9998e-12 0)
(2.09262 1.87868e-11 0)
(2.09262 3.15357e-11 0)
(2.09262 4.78668e-11 0)
(2.09262 6.10633e-11 0)
(2.09262 5.3144e-11 0)
(2.09262 2.07592e-11 0)
(2.09511 -3.44971e-11 0)
(2.09511 -3.70456e-11 0)
(2.09511 -3.46267e-11 0)
(2.09511 -3.29086e-11 0)
(2.09511 -2.79073e-11 0)
(2.09511 -2.11298e-11 0)
(2.09511 -1.58526e-11 0)
(2.09511 -9.84502e-12 0)
(2.09511 -3.04909e-12 0)
(2.09511 3.33527e-12 0)
(2.09511 8.80972e-12 0)
(2.09511 1.40309e-11 0)
(2.09511 1.94106e-11 0)
(2.09511 2.50675e-11 0)
(2.09511 3.08931e-11 0)
(2.09511 3.70279e-11 0)
(2.09511 3.89308e-11 0)
(2.09511 3.59294e-11 0)
(2.09511 1.63718e-11 0)
(2.09511 -1.40605e-11 0)
(2.09606 3.18185e-11 0)
(2.09606 2.653e-11 0)
(2.09606 -7.61228e-12 0)
(2.09606 -5.01003e-12 0)
(2.09606 -3.02455e-11 0)
(2.09606 -2.49829e-11 0)
(2.09606 -1.72924e-11 0)
(2.09606 -1.04108e-11 0)
(2.09606 -4.77004e-12 0)
(2.09606 -8.41229e-13 0)
(2.09606 1.50968e-12 0)
(2.09606 2.38281e-12 0)
(2.09606 1.47129e-12 0)
(2.09606 -6.5558e-13 0)
(2.09606 -3.16721e-12 0)
(2.09606 -5.61309e-12 0)
(2.09606 -1.13569e-12 0)
(2.09606 -2.96664e-12 0)
(2.09606 2.92608e-11 0)
(2.09606 2.26739e-11 0)
(2.09581 -1.20458e-11 0)
(2.09581 -1.75644e-11 0)
(2.09581 -2.3196e-11 0)
(2.09581 -7.49363e-12 0)
(2.09581 -5.45321e-13 0)
(2.09581 6.31445e-12 0)
(2.09581 1.01014e-11 0)
(2.09581 1.37969e-11 0)
(2.09581 1.68534e-11 0)
(2.09581 1.85224e-11 0)
(2.09581 1.85949e-11 0)
(2.09581 1.68852e-11 0)
(2.09581 1.40217e-11 0)
(2.09581 9.85459e-12 0)
(2.09581 4.06713e-12 0)
(2.09581 -3.25358e-12 0)
(2.09581 -1.20628e-11 0)
(2.09581 -1.88234e-11 0)
(2.09581 -1.70354e-11 0)
(2.09581 -1.7768e-11 0)
(2.09464 3.05829e-11 0)
(2.09464 2.3018e-11 0)
(2.09464 9.24235e-12 0)
(2.09464 1.11282e-11 0)
(2.09464 1.03611e-11 0)
(2.09464 8.5566e-12 0)
(2.09464 7.09543e-12 0)
(2.09464 5.42288e-12 0)
(2.09464 3.40592e-12 0)
(2.09464 9.2739e-13 0)
(2.09464 -2.06233e-12 0)
(2.09464 -5.60003e-12 0)
(2.09464 -9.71314e-12 0)
(2.09464 -1.44086e-11 0)
(2.09464 -1.96535e-11 0)
(2.09464 -2.44331e-11 0)
(2.09464 -2.73927e-11 0)
(2.09464 -2.36878e-11 0)
(2.09464 -2.7257e-12 0)
(2.09464 2.0549e-11 0)
(2.09273 5.21097e-11 0)
(2.09273 4.39515e-11 0)
(2.09273 2.69833e-11 0)
(2.09273 2.05734e-11 0)
(2.09273 1.45652e-11 0)
(2.09273 7.57394e-12 0)
(2.09273 3.17815e-12 0)
(2.09273 -1.605e-12 0)
(2.09273 -6.40835e-12 0)
(2.09273 -1.09929e-11 0)
(2.09273 -1.5365e-11 0)
(2.09273 -1.9511e-11 0)
(2.09273 -2.34589e-11 0)
(2.09273 -2.70913e-11 0)
(2.09273 -3.01253e-11 0)
(2.09273 -3.18285e-11 0)
(2.09273 -2.98669e-11 0)
(2.09273 -2.03397e-11 0)
(2.09273 7.75867e-12 0)
(2.09273 3.9331e-11 0)
(2.09015 6.11238e-11 0)
(2.09015 5.25756e-11 0)
(2.09015 3.47784e-11 0)
(2.09015 2.52811e-11 0)
(2.09015 1.69899e-11 0)
(2.09015 7.76145e-12 0)
(2.09015 1.1501e-12 0)
(2.09015 -5.71239e-12 0)
(2.09015 -1.21148e-11 0)
(2.09015 -1.7792e-11 0)
(2.09015 -2.27537e-11 0)
(2.09015 -2.69882e-11 0)
(2.09015 -3.04801e-11 0)
(2.09015 -3.30942e-11 0)
(2.09015 -3.41358e-11 0)
(2.09015 -3.31857e-11 0)
(2.09015 -2.84483e-11 0)
(2.09015 -1.51878e-11 0)
(2.09015 1.38211e-11 0)
(2.09015 4.6559e-11 0)
(2.08696 5.93187e-11 0)
(2.08696 5.2427e-11 0)
(2.08696 3.61814e-11 0)
(2.08696 2.59049e-11 0)
(2.08696 1.71109e-11 0)
(2.08696 7.48847e-12 0)
(2.08696 2.79922e-13 0)
(2.08696 -7.06531e-12 0)
(2.08696 -1.37754e-11 0)
(2.08696 -1.95865e-11 0)
(2.08696 -2.44943e-11 0)
(2.08696 -2.84796e-11 0)
(2.08696 -3.14978e-11 0)
(2.08696 -3.33446e-11 0)
(2.08696 -3.34001e-11 0)
(2.08696 -3.13554e-11 0)
(2.08696 -2.50911e-11 0)
(2.08696 -1.12497e-11 0)
(2.08696 1.51333e-11 0)
(2.08696 4.5461e-11 0)
(2.08318 5.83954e-11 0)
(2.08318 5.29173e-11 0)
(2.08318 3.82453e-11 0)
(2.08318 2.68005e-11 0)
(2.08318 1.73657e-11 0)
(2.08318 7.26257e-12 0)
(2.08318 -6.0006e-13 0)
(2.08318 -8.42853e-12 0)
(2.08318 -1.5417e-11 0)
(2.08318 -2.1323e-11 0)
(2.08318 -2.61417e-11 0)
(2.08318 -2.98555e-11 0)
(2.08318 -3.23921e-11 0)
(2.08318 -3.34225e-11 0)
(2.08318 -3.25428e-11 0)
(2.08318 -2.96799e-11 0)
(2.08318 -2.23497e-11 0)
(2.08318 -8.28278e-12 0)
(2.08318 1.55942e-11 0)
(2.08318 4.41245e-11 0)
(2.07886 4.84244e-11 0)
(2.07886 4.42406e-11 0)
(2.07886 3.26764e-11 0)
(2.07886 2.28499e-11 0)
(2.07886 1.48976e-11 0)
(2.07886 6.40593e-12 0)
(2.07886 -1.30224e-13 0)
(2.07886 -6.71972e-12 0)
(2.07886 -1.27115e-11 0)
(2.07886 -1.78182e-11 0)
(2.07886 -2.20247e-11 0)
(2.07886 -2.53125e-11 0)
(2.07886 -2.76056e-11 0)
(2.07886 -2.86983e-11 0)
(2.07886 -2.80183e-11 0)
(2.07886 -2.52306e-11 0)
(2.07886 -1.86179e-11 0)
(2.07886 -6.38424e-12 0)
(2.07886 1.30441e-11 0)
(2.07886 3.65421e-11 0)
(2.07403 3.65838e-11 0)
(2.07403 3.29522e-11 0)
(2.07403 2.43785e-11 0)
(2.07403 1.80745e-11 0)
(2.07403 1.2439e-11 0)
(2.07403 6.05079e-12 0)
(2.07403 1.50968e-12 0)
(2.07403 -3.34981e-12 0)
(2.07403 -8.0151e-12 0)
(2.07403 -1.2153e-11 0)
(2.07403 -1.57246e-11 0)
(2.07403 -1.87007e-11 0)
(2.07403 -2.10138e-11 0)
(2.07403 -2.25009e-11 0)
(2.07403 -2.24859e-11 0)
(2.07403 -2.08072e-11 0)
(2.07403 -1.59274e-11 0)
(2.07403 -6.52778e-12 0)
(2.07403 8.37112e-12 0)
(2.07403 2.67998e-11 0)
(2.06873 3.39638e-11 0)
(2.06873 3.11868e-11 0)
(2.06873 2.39378e-11 0)
(2.06873 1.79562e-11 0)
(2.06873 1.24257e-11 0)
(2.06873 6.1493e-12 0)
(2.06873 1.83033e-12 0)
(2.06873 -2.89459e-12 0)
(2.06873 -7.41259e-12 0)
(2.06873 -1.14002e-11 0)
(2.06873 -1.48232e-11 0)
(2.06873 -1.76531e-11 0)
(2.06873 -1.98319e-11 0)
(2.06873 -2.11932e-11 0)
(2.06873 -2.11784e-11 0)
(2.06873 -1.95507e-11 0)
(2.06873 -1.50416e-11 0)
(2.06873 -6.56608e-12 0)
(2.06873 6.42961e-12 0)
(2.06873 2.38467e-11 0)
(2.06301 3.05932e-11 0)
(2.06301 2.88474e-11 0)
(2.06301 2.30244e-11 0)
(2.06301 1.69003e-11 0)
(2.06301 1.15842e-11 0)
(2.06301 5.7206e-12 0)
(2.06301 1.70038e-12 0)
(2.06301 -2.70162e-12 0)
(2.06301 -6.90917e-12 0)
(2.06301 -1.06122e-11 0)
(2.06301 -1.37774e-11 0)
(2.06301 -1.638e-11 0)
(2.06301 -1.83682e-11 0)
(2.06301 -1.95928e-11 0)
(2.06301 -1.95273e-11 0)
(2.06301 -1.79791e-11 0)
(2.06301 -1.37799e-11 0)
(2.06301 -5.96222e-12 0)
(2.06301 5.50933e-12 0)
(2.06301 2.12891e-11 0)
(2.05692 2.62003e-11 0)
(2.05692 2.50652e-11 0)
(2.05692 2.05704e-11 0)
(2.05692 1.50454e-11 0)
(2.05692 1.02454e-11 0)
(2.05692 4.96487e-12 0)
(2.05692 1.46119e-12 0)
(2.05692 -2.42531e-12 0)
(2.05692 -6.16088e-12 0)
(2.05692 -9.43435e-12 0)
(2.05692 -1.22083e-11 0)
(2.05692 -1.44588e-11 0)
(2.05692 -1.61416e-11 0)
(2.05692 -1.7131e-11 0)
(2.05692 -1.69532e-11 0)
(2.05692 -1.54619e-11 0)
(2.05692 -1.16426e-11 0)
(2.05692 -4.70024e-12 0)
(2.05692 5.04919e-12 0)
(2.05692 1.83444e-11 0)
(2.05053 2.20108e-11 0)
(2.05053 2.13321e-11 0)
(2.05053 1.7875e-11 0)
(2.05053 1.27762e-11 0)
(2.05053 8.38778e-12 0)
(2.05053 3.61943e-12 0)
(2.05053 5.34905e-13 0)
(2.05053 -2.85685e-12 0)
(2.05053 -6.09123e-12 0)
(2.05053 -8.86282e-12 0)
(2.05053 -1.1132e-11 0)
(2.05053 -1.28764e-11 0)
(2.05053 -1.40617e-11 0)
(2.05053 -1.45738e-11 0)
(2.05053 -1.40405e-11 0)
(2.05053 -1.23648e-11 0)
(2.05053 -8.71522e-12 0)
(2.05053 -2.55442e-12 0)
(2.05053 5.46605e-12 0)
(2.05053 1.59528e-11 0)
(2.04389 1.82339e-11 0)
(2.04389 1.78438e-11 0)
(2.04389 1.50718e-11 0)
(2.04389 1.01553e-11 0)
(2.04389 6.02335e-12 0)
(2.04389 1.65171e-12 0)
(2.04389 -1.12814e-12 0)
(2.04389 -4.0731e-12 0)
(2.04389 -6.79059e-12 0)
(2.04389 -8.98843e-12 0)
(2.04389 -1.06258e-11 0)
(2.04389 -1.16784e-11 0)
(2.04389 -1.20953e-11 0)
(2.04389 -1.17388e-11 0)
(2.04389 -1.0651e-11 0)
(2.04389 -8.46192e-12 0)
(2.04389 -4.68213e-12 0)
(2.04389 8.11901e-13 0)
(2.04389 6.96007e-12 0)
(2.04389 1.4252e-11 0)
(2.03708 1.49558e-11 0)
(2.03708 1.47051e-11 0)
(2.03708 1.222e-11 0)
(2.03708 7.21462e-12 0)
(2.03708 3.14461e-12 0)
(2.03708 -1.00673e-12 0)
(2.03708 -3.55725e-12 0)
(2.03708 -6.11667e-12 0)
(2.03708 -8.31946e-12 0)
(2.03708 -9.88933e-12 0)
(2.03708 -1.07875e-11 0)
(2.03708 -1.09488e-11 0)
(2.03708 -1.03039e-11 0)
(2.03708 -9.02113e-12 0)
(2.03708 -6.91647e-12 0)
(2.03708 -3.83459e-12 0)
(2.03708 4.20021e-13 0)
(2.03708 5.42821e-12 0)
(2.03708 9.47565e-12 0)
(2.03708 1.31734e-11 0)
(2.03019 1.23592e-11 0)
(2.03019 1.21564e-11 0)
(2.03019 9.56643e-12 0)
(2.03019 4.2283e-12 0)
(2.03019 4.4539e-14 0)
(2.03019 -4.07478e-12 0)
(2.03019 -6.48167e-12 0)
(2.03019 -8.74619e-12 0)
(2.03019 -1.04829e-11 0)
(2.03019 -1.14213e-11 0)
(2.03019 -1.14528e-11 0)
(2.03019 -1.05907e-11 0)
(2.03019 -8.97537e-12 0)
(2.03019 -6.49912e-12 0)
(2.03019 -3.13229e-12 0)
(2.03019 1.12343e-12 0)
(2.03019 6.15308e-12 0)
(2.03019 1.08706e-11 0)
(2.03019 1.27343e-11 0)
(2.03019 1.27153e-11 0)
(2.02333 1.02222e-11 0)
(2.02333 1.00325e-11 0)
(2.02333 7.11458e-12 0)
(2.02333 1.38976e-12 0)
(2.02333 -2.94393e-12 0)
(2.02333 -7.05758e-12 0)
(2.02333 -9.3992e-12 0)
(2.02333 -1.13915e-11 0)
(2.02333 -1.26906e-11 0)
(2.02333 -1.29752e-11 0)
(2.02333 -1.21765e-11 0)
(2.02333 -1.05322e-11 0)
(2.02333 -7.90881e-12 0)
(2.02333 -4.2944e-12 0)
(2.02333 2.88326e-13 0)
(2.02333 5.71877e-12 0)
(2.02333 1.16047e-11 0)
(2.02333 1.62049e-11 0)
(2.02333 1.61654e-11 0)
(2.02333 1.23128e-11 0)
(2.01668 9.65656e-12 0)
(2.01668 9.63623e-12 0)
(2.01668 6.22087e-12 0)
(2.01668 9.63191e-14 0)
(2.01668 -4.45676e-12 0)
(2.01668 -8.43912e-12 0)
(2.01668 -1.11367e-11 0)
(2.01668 -1.30116e-11 0)
(2.01668 -1.40065e-11 0)
(2.01668 -1.37033e-11 0)
(2.01668 -1.24448e-11 0)
(2.01668 -1.04616e-11 0)
(2.01668 -7.46651e-12 0)
(2.01668 -3.35849e-12 0)
(2.01668 1.77959e-12 0)
(2.01668 7.80211e-12 0)
(2.01668 1.42242e-11 0)
(2.01668 1.89165e-11 0)
(2.01668 1.79072e-11 0)
(2.01668 1.24254e-11 0)
(2.01046 2.08073e-11 0)
(2.01046 1.83843e-11 0)
(2.01046 7.85464e-12 0)
(2.01046 -7.16184e-12 0)
(2.01046 -1.71446e-11 0)
(2.01046 -2.51015e-11 0)
(2.01046 -2.3432e-11 0)
(2.01046 -1.30916e-11 0)
(2.01046 -6.8932e-12 0)
(2.01046 -2.76064e-12 0)
(2.01046 -8.23115e-13 0)
(2.01046 -1.4545e-12 0)
(2.01046 -3.48292e-12 0)
(2.01046 -7.45736e-12 0)
(2.01046 -7.83574e-12 0)
(2.01046 -5.31713e-12 0)
(2.01046 4.41543e-12 0)
(2.01046 2.18626e-11 0)
(2.01046 2.55096e-11 0)
(2.01046 2.27947e-11 0)
(2.005 1.98249e-11 0)
(2.005 2.40284e-11 0)
(2.005 1.99128e-11 0)
(2.005 1.00248e-11 0)
(2.005 -2.63635e-12 0)
(2.005 -9.70295e-12 0)
(2.005 -1.22457e-11 0)
(2.005 -1.32619e-11 0)
(2.005 -1.27693e-11 0)
(2.005 -1.17012e-11 0)
(2.005 -1.01418e-11 0)
(2.005 -8.10493e-12 0)
(2.005 -7.02124e-12 0)
(2.005 -1.03871e-11 0)
(2.005 -1.27772e-11 0)
(2.005 -8.06206e-12 0)
(2.005 1.71088e-12 0)
(2.005 1.28914e-11 0)
(2.005 1.48664e-11 0)
(2.005 1.5985e-11 0)
(2.00065 2.95124e-12 0)
(2.00065 5.49813e-12 0)
(2.00065 7.48077e-12 0)
(2.00065 1.0318e-11 0)
(2.00065 1.23321e-11 0)
(2.00065 1.23991e-11 0)
(2.00065 7.7976e-12 0)
(2.00065 -6.91648e-12 0)
(2.00065 -1.6257e-11 0)
(2.00065 -2.23715e-11 0)
(2.00065 -2.36385e-11 0)
(2.00065 -2.07381e-11 0)
(2.00065 -1.5215e-11 0)
(2.00065 -4.62817e-12 0)
(2.00065 4.51097e-12 0)
(2.00065 1.39061e-11 0)
(2.00065 1.6153e-11 0)
(2.00065 1.03274e-11 0)
(2.00065 4.43833e-12 0)
(2.00065 1.50847e-12 0)
(1.9977 1.38322e-11 0)
(1.9977 1.43011e-11 0)
(1.9977 1.08883e-11 0)
(1.9977 5.70627e-12 0)
(1.9977 2.08398e-12 0)
(1.9977 -8.9487e-13 0)
(1.9977 -4.40679e-12 0)
(1.9977 -6.49655e-12 0)
(1.9977 -8.36528e-12 0)
(1.9977 -9.58454e-12 0)
(1.9977 -9.97624e-12 0)
(1.9977 -9.61483e-12 0)
(1.9977 -8.68965e-12 0)
(1.9977 -7.24829e-12 0)
(1.9977 -5.04391e-12 0)
(1.9977 -2.06196e-12 0)
(1.9977 1.42225e-12 0)
(1.9977 5.11748e-12 0)
(1.9977 8.03405e-12 0)