/*--------------------------------*- C++ -*----------------------------------*\
| =========                 |                                                 |
| \\      /  F ield         | OpenFOAM: The Open Source CFD Toolbox           |
|  \\    /   O peration     | Version:  v1906                                 |
|   \\  /    A nd           | Web:      www.OpenFOAM.com                      |
|    \\/     M anipulation  |                                                 |
\*---------------------------------------------------------------------------*/
FoamFile
{
    version     2.0;
    format      ascii;
    class       volVectorField;
    location    "19.44";
    object      UMean;
}
// * * * * * * * * * * * * * * * * * * * * * * * * * * * * * * * * * * * * * //

dimensions      [0 1 -1 0 0 0 0];


internalField   nonuniform List<vector> 
1380
(
(0.00502975 5.95631e-10 0)
(0.00502975 1.58976e-10 0)
(0.00502975 -6.40747e-11 0)
(0.00502975 -1.27735e-10 0)
(0.00502975 -1.74993e-10 0)
(0.00502975 -1.9848e-10 0)
(0.00502975 -2.13534e-10 0)
(0.00502975 -2.21323e-10 0)
(0.00502975 -2.24211e-10 0)
(0.00502975 -2.20188e-10 0)
(0.00502975 -2.11463e-10 0)
(0.00502975 -1.96565e-10 0)
(0.00502975 -1.7251e-10 0)
(0.00502975 -1.39409e-10 0)
(0.00502975 -9.44995e-11 0)
(0.00502975 -3.49775e-11 0)
(0.00502975 5.26767e-11 0)
(0.00502975 1.74307e-10 0)
(0.00502975 4.4397e-10 0)
(0.00502975 8.13971e-10 0)
(0.0319416 1.51143e-10 0)
(0.0319416 3.009e-10 0)
(0.0319416 2.51658e-11 0)
(0.0319416 -2.6438e-11 0)
(0.0319416 -4.34318e-11 0)
(0.0319416 -5.45374e-11 0)
(0.0319416 -6.17649e-11 0)
(0.0319416 -6.82325e-11 0)
(0.0319416 -7.41238e-11 0)
(0.0319416 -7.895e-11 0)
(0.0319416 -8.1996e-11 0)
(0.0319416 -8.32908e-11 0)
(0.0319416 -8.22553e-11 0)
(0.0319416 -7.86343e-11 0)
(0.0319416 -7.18791e-11 0)
(0.0319416 -5.98425e-11 0)
(0.0319416 -4.02536e-11 0)
(0.0319416 1.79095e-11 0)
(0.0319416 2.68776e-10 0)
(0.0319416 1.32584e-10 0)
(0.0355973 4.28494e-10 0)
(0.0355973 5.47727e-10 0)
(0.0355973 1.74758e-10 0)
(0.0355973 1.37855e-11 0)
(0.0355973 -6.80957e-11 0)
(0.0355973 -1.25367e-10 0)
(0.0355973 -1.6707e-10 0)
(0.0355973 -1.98825e-10 0)
(0.0355973 -2.21214e-10 0)
(0.0355973 -2.34552e-10 0)
(0.0355973 -2.38623e-10 0)
(0.0355973 -2.33458e-10 0)
(0.0355973 -2.17472e-10 0)
(0.0355973 -1.90016e-10 0)
(0.0355973 -1.50109e-10 0)
(0.0355973 -9.4956e-11 0)
(0.0355973 -1.58135e-11 0)
(0.0355973 1.2147e-10 0)
(0.0355973 4.78207e-10 0)
(0.0355973 4.01754e-10 0)
(0.0370756 4.60965e-10 0)
(0.0370756 5.88781e-10 0)
(0.0370756 2.18884e-10 0)
(0.0370756 3.42185e-11 0)
(0.0370756 -5.2055e-11 0)
(0.0370756 -1.112e-10 0)
(0.0370756 -1.53118e-10 0)
(0.0370756 -1.85035e-10 0)
(0.0370756 -2.07739e-10 0)
(0.0370756 -2.22376e-10 0)
(0.0370756 -2.29328e-10 0)
(0.0370756 -2.27443e-10 0)
(0.0370756 -2.16925e-10 0)
(0.0370756 -1.96504e-10 0)
(0.0370756 -1.66143e-10 0)
(0.0370756 -1.22488e-10 0)
(0.0370756 -5.76695e-11 0)
(0.0370756 7.20575e-11 0)
(0.0370756 4.02801e-10 0)
(0.0370756 3.51675e-10 0)
(0.038118 5.05895e-10 0)
(0.038118 6.4401e-10 0)
(0.038118 2.85386e-10 0)
(0.038118 7.74468e-11 0)
(0.038118 -2.62083e-11 0)
(0.038118 -9.87926e-11 0)
(0.038118 -1.51122e-10 0)
(0.038118 -1.90069e-10 0)
(0.038118 -2.17639e-10 0)
(0.038118 -2.35346e-10 0)
(0.038118 -2.47062e-10 0)
(0.038118 -2.44643e-10 0)
(0.038118 -2.34699e-10 0)
(0.038118 -2.14838e-10 0)
(0.038118 -1.84347e-10 0)
(0.038118 -1.38695e-10 0)
(0.038118 -6.97605e-11 0)
(0.038118 5.72389e-11 0)
(0.038118 3.6134e-10 0)
(0.038118 3.41001e-10 0)
(0.0389542 5.34455e-10 0)
(0.0389542 6.82238e-10 0)
(0.0389542 3.46668e-10 0)
(0.0389542 1.232e-10 0)
(0.0389542 7.21581e-12 0)
(0.0389542 -7.12815e-11 0)
(0.0389542 -1.32061e-10 0)
(0.0389542 -1.83091e-10 0)
(0.0389542 -2.23408e-10 0)
(0.0389542 -2.49521e-10 0)
(0.0389542 -2.65457e-10 0)
(0.0389542 -2.69835e-10 0)
(0.0389542 -2.60916e-10 0)
(0.0389542 -2.41062e-10 0)
(0.0389542 -2.12154e-10 0)
(0.0389542 -1.69335e-10 0)
(0.0389542 -1.0063e-10 0)
(0.0389542 3.31609e-11 0)
(0.0389542 3.14668e-10 0)
(0.0389542 3.15532e-10 0)
(0.0396505 5.1394e-10 0)
(0.0396505 6.56521e-10 0)
(0.0396505 3.54267e-10 0)
(0.0396505 1.34523e-10 0)
(0.0396505 5.99948e-12 0)
(0.0396505 -8.88248e-11 0)
(0.0396505 -1.53265e-10 0)
(0.0396505 -1.91606e-10 0)
(0.0396505 -2.12808e-10 0)
(0.0396505 -2.40671e-10 0)
(0.0396505 -2.51188e-10 0)
(0.0396505 -2.48078e-10 0)
(0.0396505 -2.39901e-10 0)
(0.0396505 -2.23011e-10 0)
(0.0396505 -1.85143e-10 0)
(0.0396505 -1.33847e-10 0)
(0.0396505 -6.66012e-11 0)
(0.0396505 3.11901e-11 0)
(0.0396505 2.57846e-10 0)
(0.0396505 2.92338e-10 0)
(0.0402407 5.23221e-10 0)
(0.0402407 7.42433e-10 0)
(0.0402407 5.19528e-10 0)
(0.0402407 3.54927e-10 0)
(0.0402407 2.70819e-10 0)
(0.0402407 1.95241e-10 0)
(0.0402407 1.14026e-10 0)
(0.0402407 2.08818e-11 0)
(0.0402407 -8.36886e-11 0)
(0.0402407 -1.84223e-10 0)
(0.0402407 -2.68987e-10 0)
(0.0402407 -3.31669e-10 0)
(0.0402407 -3.85431e-10 0)
(0.0402407 -4.26042e-10 0)
(0.0402407 -4.42484e-10 0)
(0.0402407 -4.16878e-10 0)
(0.0402407 -3.38693e-10 0)
(0.0402407 -1.77093e-10 0)
(0.0402407 9.91388e-11 0)
(0.0402407 2.10629e-10 0)
(0.0407457 5.67712e-10 0)
(0.0407457 4.93643e-10 0)
(0.0407457 -1.0598e-11 0)
(0.0407457 -4.67966e-10 0)
(0.0407457 -8.10957e-10 0)
(0.0407457 -1.00669e-09 0)
(0.0407457 -1.06538e-09 0)
(0.0407457 -9.91885e-10 0)
(0.0407457 -7.79122e-10 0)
(0.0407457 -5.5064e-10 0)
(0.0407457 -3.02326e-10 0)
(0.0407457 -7.71909e-11 0)
(0.0407457 1.62221e-10 0)
(0.0407457 4.02994e-10 0)
(0.0407457 6.24946e-10 0)
(0.0407457 7.61458e-10 0)
(0.0407457 8.20356e-10 0)
(0.0407457 8.15451e-10 0)
(0.0407457 7.8601e-10 0)
(0.0407457 5.87106e-10 0)
(0.0411796 4.23779e-10 0)
(0.0411796 1.17189e-09 0)
(0.0411796 1.48118e-09 0)
(0.0411796 1.72226e-09 0)
(0.0411796 1.85677e-09 0)
(0.0411796 1.88535e-09 0)
(0.0411796 1.8228e-09 0)
(0.0411796 1.63558e-09 0)
(0.0411796 1.27612e-09 0)
(0.0411796 6.77814e-10 0)
(0.0411796 5.11444e-11 0)
(0.0411796 -6.37057e-10 0)
(0.0411796 -1.30489e-09 0)
(0.0411796 -1.89969e-09 0)
(0.0411796 -2.23068e-09 0)
(0.0411796 -2.31098e-09 0)
(0.0411796 -2.181e-09 0)
(0.0411796 -1.78132e-09 0)
(0.0411796 -1.13404e-09 0)
(0.0411796 -4.18324e-10 0)
(0.0415524 2.23889e-09 0)
(0.0415524 8.65493e-10 0)
(0.0415524 -6.53997e-10 0)
(0.0415524 -2.06431e-09 0)
(0.0415524 -3.15615e-09 0)
(0.0415524 -3.77081e-09 0)
(0.0415524 -3.95969e-09 0)
(0.0415524 -3.78317e-09 0)
(0.0415524 -3.38982e-09 0)
(0.0415524 -2.54845e-09 0)
(0.0415524 -1.4554e-09 0)
(0.0415524 -5.07857e-11 0)
(0.0415524 1.03691e-09 0)
(0.0415524 1.84361e-09 0)
(0.0415524 2.37214e-09 0)
(0.0415524 2.88712e-09 0)
(0.0415524 3.3124e-09 0)
(0.0415524 3.59869e-09 0)
(0.0415524 3.66751e-09 0)
(0.0415524 3.07766e-09 0)
(0.0418719 -1.33373e-09 0)
(0.0418719 1.22634e-09 0)
(0.0418719 3.0386e-09 0)
(0.0418719 3.20324e-09 0)
(0.0418719 3.12194e-09 0)
(0.0418719 3.11491e-09 0)
(0.0418719 3.11691e-09 0)
(0.0418719 3.1598e-09 0)
(0.0418719 3.31449e-09 0)
(0.0418719 3.30369e-09 0)
(0.0418719 1.65488e-09 0)
(0.0418719 -1.14881e-09 0)
(0.0418719 -2.78037e-09 0)
(0.0418719 -3.20393e-09 0)
(0.0418719 -3.28773e-09 0)
(0.0418719 -3.36182e-09 0)
(0.0418719 -3.41952e-09 0)
(0.0418719 -3.44324e-09 0)
(0.0418719 -3.40372e-09 0)
(0.0418719 -2.96076e-09 0)
(0.0421438 -8.84405e-10 0)
(0.0421438 -2.00759e-09 0)
(0.0421438 -2.42092e-09 0)
(0.0421438 -2.40301e-09 0)
(0.0421438 -1.9077e-09 0)
(0.0421438 -1.62774e-09 0)
(0.0421438 -1.46963e-09 0)
(0.0421438 -1.38603e-09 0)
(0.0421438 -1.31409e-09 0)
(0.0421438 -8.31837e-10 0)
(0.0421438 1.65098e-11 0)
(0.0421438 1.60937e-09 0)
(0.0421438 2.33967e-09 0)
(0.0421438 2.80244e-09 0)
(0.0421438 2.77933e-09 0)
(0.0421438 2.49547e-09 0)
(0.0421438 2.00759e-09 0)
(0.0421438 1.3905e-09 0)
(0.0421438 8.33232e-10 0)
(0.0421438 -3.2014e-11 0)
(0.0423728 -8.68284e-10 0)
(0.0423728 -1.39532e-11 0)
(0.0423728 7.02787e-10 0)
(0.0423728 1.31047e-09 0)
(0.0423728 1.76018e-09 0)
(0.0423728 2.03665e-09 0)
(0.0423728 2.11586e-09 0)
(0.0423728 1.99561e-09 0)
(0.0423728 1.70206e-09 0)
(0.0423728 1.23331e-09 0)
(0.0423728 6.30528e-10 0)
(0.0423728 3.4989e-11 0)
(0.0423728 -6.03384e-10 0)
(0.0423728 -1.1268e-09 0)
(0.0423728 -1.53588e-09 0)
(0.0423728 -1.84958e-09 0)
(0.0423728 -2.04171e-09 0)
(0.0423728 -2.06736e-09 0)
(0.0423728 -1.87741e-09 0)
(0.0423728 -1.56324e-09 0)
(0.042562 -1.02616e-10 0)
(0.042562 -2.2388e-10 0)
(0.042562 -5.29614e-10 0)
(0.042562 -7.8034e-10 0)
(0.042562 -9.16831e-10 0)
(0.042562 -9.57183e-10 0)
(0.042562 -9.24189e-10 0)
(0.042562 -8.24386e-10 0)
(0.042562 -6.31772e-10 0)
(0.042562 -3.44108e-10 0)
(0.042562 -4.41812e-11 0)
(0.042562 3.16655e-10 0)
(0.042562 6.34918e-10 0)
(0.042562 8.92484e-10 0)
(0.042562 1.03679e-09 0)
(0.042562 1.05152e-09 0)
(0.042562 9.55826e-10 0)
(0.042562 7.7466e-10 0)
(0.042562 5.38609e-10 0)
(0.042562 1.20658e-10 0)
(0.0427139 -2.0506e-10 0)
(0.0427139 6.77031e-11 0)
(0.0427139 1.55161e-10 0)
(0.0427139 2.295e-10 0)
(0.0427139 2.87923e-10 0)
(0.0427139 3.12022e-10 0)
(0.0427139 3.09242e-10 0)
(0.0427139 2.84384e-10 0)
(0.0427139 2.3238e-10 0)
(0.0427139 1.61427e-10 0)
(0.0427139 9.19507e-11 0)
(0.0427139 2.54109e-11 0)
(0.0427139 -5.21468e-11 0)
(0.0427139 -1.34999e-10 0)
(0.0427139 -2.0722e-10 0)
(0.0427139 -2.63838e-10 0)
(0.0427139 -3.16964e-10 0)
(0.0427139 -3.44615e-10 0)
(0.0427139 -3.19715e-10 0)
(0.0427139 -3.62626e-10 0)
(0.0428308 -1.92887e-10 0)
(0.0428308 2.45875e-12 0)
(0.0428308 2.38239e-11 0)
(0.0428308 2.38041e-11 0)
(0.0428308 2.64234e-11 0)
(0.0428308 2.78597e-11 0)
(0.0428308 3.25528e-11 0)
(0.0428308 4.37081e-11 0)
(0.0428308 5.00373e-11 0)
(0.0428308 6.78001e-11 0)
(0.0428308 8.23462e-11 0)
(0.0428308 8.78882e-11 0)
(0.0428308 9.35887e-11 0)
(0.0428308 9.23243e-11 0)
(0.0428308 7.30048e-11 0)
(0.0428308 3.59888e-11 0)
(0.0428308 -2.51751e-11 0)
(0.0428308 -9.11971e-11 0)
(0.0428308 -1.3889e-10 0)
(0.0428308 -2.66107e-10 0)
(0.0429145 -2.61799e-10 0)
(0.0429145 -3.86766e-11 0)
(0.0429145 4.04046e-11 0)
(0.0429145 9.75296e-11 0)
(0.0429145 1.34543e-10 0)
(0.0429145 1.57932e-10 0)
(0.0429145 1.64984e-10 0)
(0.0429145 1.59811e-10 0)
(0.0429145 1.48256e-10 0)
(0.0429145 1.3366e-10 0)
(0.0429145 1.16167e-10 0)
(0.0429145 9.43341e-11 0)
(0.0429145 6.51782e-11 0)
(0.0429145 2.66323e-11 0)
(0.0429145 -2.17812e-11 0)
(0.0429145 -8.11919e-11 0)
(0.0429145 -1.51183e-10 0)
(0.0429145 -2.14534e-10 0)
(0.0429145 -2.58252e-10 0)
(0.0429145 -3.59961e-10 0)
(0.0429668 -2.97629e-10 0)
(0.0429668 -8.00781e-11 0)
(0.0429668 1.57177e-11 0)
(0.0429668 8.08909e-11 0)
(0.0429668 1.15926e-10 0)
(0.0429668 1.36155e-10 0)
(0.0429668 1.46329e-10 0)
(0.0429668 1.50781e-10 0)
(0.0429668 1.4985e-10 0)
(0.0429668 1.45151e-10 0)
(0.0429668 1.37136e-10 0)
(0.0429668 1.23199e-10 0)
(0.0429668 1.02009e-10 0)
(0.0429668 7.15127e-11 0)
(0.0429668 2.85864e-11 0)
(0.0429668 -3.04726e-11 0)
(0.0429668 -1.10271e-10 0)
(0.0429668 -1.9563e-10 0)
(0.0429668 -2.65158e-10 0)
(0.0429668 -3.79716e-10 0)
(0.042989 -3.2937e-10 0)
(0.042989 -1.07306e-10 0)
(0.042989 1.16038e-11 0)
(0.042989 9.53263e-11 0)
(0.042989 1.38305e-10 0)
(0.042989 1.62194e-10 0)
(0.042989 1.72546e-10 0)
(0.042989 1.73931e-10 0)
(0.042989 1.68843e-10 0)
(0.042989 1.58342e-10 0)
(0.042989 1.43707e-10 0)
(0.042989 1.24329e-10 0)
(0.042989 9.75587e-11 0)
(0.042989 6.12363e-11 0)
(0.042989 1.34102e-11 0)
(0.042989 -5.06058e-11 0)
(0.042989 -1.35481e-10 0)
(0.042989 -2.27037e-10 0)
(0.042989 -3.02088e-10 0)
(0.042989 -4.11588e-10 0)
(0.0429812 -3.07085e-10 0)
(0.0429812 -1.06858e-10 0)
(0.0429812 9.7133e-12 0)
(0.0429812 9.59695e-11 0)
(0.0429812 1.37666e-10 0)
(0.0429812 1.59228e-10 0)
(0.0429812 1.67164e-10 0)
(0.0429812 1.67093e-10 0)
(0.0429812 1.61339e-10 0)
(0.0429812 1.50266e-10 0)
(0.0429812 1.35382e-10 0)
(0.0429812 1.17136e-10 0)
(0.0429812 9.33346e-11 0)
(0.0429812 6.18898e-11 0)
(0.0429812 1.88646e-11 0)
(0.0429812 -3.95288e-11 0)
(0.0429812 -1.17147e-10 0)
(0.0429812 -2.05117e-10 0)
(0.0429812 -2.77856e-10 0)
(0.0429812 -3.79188e-10 0)
(0.0429406 -2.34504e-10 0)
(0.0429406 -9.86977e-11 0)
(0.0429406 -2.85173e-11 0)
(0.0429406 3.18211e-11 0)
(0.0429406 6.89832e-11 0)
(0.0429406 9.49055e-11 0)
(0.0429406 1.10313e-10 0)
(0.0429406 1.17936e-10 0)
(0.0429406 1.19175e-10 0)
(0.0429406 1.1414e-10 0)
(0.0429406 1.03906e-10 0)
(0.0429406 8.98136e-11 0)
(0.0429406 7.13128e-11 0)
(0.0429406 4.84836e-11 0)
(0.0429406 1.96582e-11 0)
(0.0429406 -1.78689e-11 0)
(0.0429406 -6.82576e-11 0)
(0.0429406 -1.26614e-10 0)
(0.0429406 -1.81936e-10 0)
(0.0429406 -2.75874e-10 0)
(0.0428638 -2.52908e-10 0)
(0.0428638 -1.4284e-10 0)
(0.0428638 -5.32726e-11 0)
(0.0428638 3.98118e-11 0)
(0.0428638 1.00915e-10 0)
(0.0428638 1.45473e-10 0)
(0.0428638 1.73004e-10 0)
(0.0428638 1.85573e-10 0)
(0.0428638 1.84714e-10 0)
(0.0428638 1.72453e-10 0)
(0.0428638 1.50283e-10 0)
(0.0428638 1.20395e-10 0)
(0.0428638 8.40916e-11 0)
(0.0428638 4.21037e-11 0)
(0.0428638 -6.30333e-12 0)
(0.0428638 -6.19341e-11 0)
(0.0428638 -1.24079e-10 0)
(0.0428638 -1.84989e-10 0)
(0.0428638 -2.32289e-10 0)
(0.0428638 -3.00854e-10 0)
(0.0427473 -5.35228e-10 0)
(0.0427473 -3.02047e-10 0)
(0.0427473 -7.52593e-11 0)
(0.0427473 1.45947e-10 0)
(0.0427473 2.9061e-10 0)
(0.0427473 3.78476e-10 0)
(0.0427473 4.21324e-10 0)
(0.0427473 4.30388e-10 0)
(0.0427473 4.13377e-10 0)
(0.0427473 3.75075e-10 0)
(0.0427473 3.19965e-10 0)
(0.0427473 2.51366e-10 0)
(0.0427473 1.66612e-10 0)
(0.0427473 6.55502e-11 0)
(0.0427473 -5.23191e-11 0)
(0.0427473 -1.90312e-10 0)
(0.0427473 -3.46691e-10 0)
(0.0427473 -5.08393e-10 0)
(0.0427473 -6.17043e-10 0)
(0.0427473 -6.69928e-10 0)
(0.0425882 -6.25137e-10 0)
(0.0425882 -3.7331e-10 0)
(0.0425882 -1.17412e-10 0)
(0.0425882 1.38229e-10 0)
(0.0425882 3.20053e-10 0)
(0.0425882 4.31865e-10 0)
(0.0425882 4.88845e-10 0)
(0.0425882 5.05488e-10 0)
(0.0425882 4.89983e-10 0)
(0.0425882 4.48816e-10 0)
(0.0425882 3.86958e-10 0)
(0.0425882 3.05931e-10 0)
(0.0425882 2.07137e-10 0)
(0.0425882 9.01959e-11 0)
(0.0425882 -4.63643e-11 0)
(0.0425882 -2.04622e-10 0)
(0.0425882 -3.83949e-10 0)
(0.0425882 -5.69423e-10 0)
(0.0425882 -6.96207e-10 0)
(0.0425882 -7.58931e-10 0)
(0.0423842 -4.91919e-10 0)
(0.0423842 -3.18074e-10 0)
(0.0423842 -1.25521e-10 0)
(0.0423842 7.85564e-11 0)
(0.0423842 2.3032e-10 0)
(0.0423842 3.29539e-10 0)
(0.0423842 3.84466e-10 0)
(0.0423842 4.03432e-10 0)
(0.0423842 3.94375e-10 0)
(0.0423842 3.62925e-10 0)
(0.0423842 3.11953e-10 0)
(0.0423842 2.44064e-10 0)
(0.0423842 1.61998e-10 0)
(0.0423842 6.65444e-11 0)
(0.0423842 -4.3507e-11 0)
(0.0423842 -1.68903e-10 0)
(0.0423842 -3.06324e-10 0)
(0.0423842 -4.40942e-10 0)
(0.0423842 -5.29296e-10 0)
(0.0423842 -5.81742e-10 0)
(0.0421338 -4.28858e-10 0)
(0.0421338 -2.85923e-10 0)
(0.0421338 -1.15111e-10 0)
(0.0421338 6.82053e-11 0)
(0.0421338 2.03651e-10 0)
(0.0421338 2.89738e-10 0)
(0.0421338 3.3637e-10 0)
(0.0421338 3.52369e-10 0)
(0.0421338 3.44318e-10 0)
(0.0421338 3.16708e-10 0)
(0.0421338 2.72618e-10 0)
(0.0421338 2.14265e-10 0)
(0.0421338 1.44377e-10 0)
(0.0421338 6.2916e-11 0)
(0.0421338 -3.16155e-11 0)
(0.0421338 -1.40101e-10 0)
(0.0421338 -2.58031e-10 0)
(0.0421338 -3.7036e-10 0)
(0.0421338 -4.42636e-10 0)
(0.0421338 -4.95516e-10 0)
(0.0418368 -3.83858e-10 0)
(0.0418368 -2.59543e-10 0)
(0.0418368 -1.0339e-10 0)
(0.0418368 6.25785e-11 0)
(0.0418368 1.81182e-10 0)
(0.0418368 2.54486e-10 0)
(0.0418368 2.92415e-10 0)
(0.0418368 3.0334e-10 0)
(0.0418368 2.93435e-10 0)
(0.0418368 2.67038e-10 0)
(0.0418368 2.27054e-10 0)
(0.0418368 1.75589e-10 0)
(0.0418368 1.14813e-10 0)
(0.0418368 4.49769e-11 0)
(0.0418368 -3.53799e-11 0)
(0.0418368 -1.27369e-10 0)
(0.0418368 -2.26047e-10 0)
(0.0418368 -3.18592e-10 0)
(0.0418368 -3.75073e-10 0)
(0.0418368 -4.24398e-10 0)
(0.041493 -3.41706e-10 0)
(0.041493 -2.33605e-10 0)
(0.041493 -8.96417e-11 0)
(0.041493 6.13799e-11 0)
(0.041493 1.65288e-10 0)
(0.041493 2.27372e-10 0)
(0.041493 2.57902e-10 0)
(0.041493 2.64811e-10 0)
(0.041493 2.53692e-10 0)
(0.041493 2.28531e-10 0)
(0.041493 1.92136e-10 0)
(0.041493 1.46731e-10 0)
(0.041493 9.46006e-11 0)
(0.041493 3.65104e-11 0)
(0.041493 -2.94223e-11 0)
(0.041493 -1.04446e-10 0)
(0.041493 -1.83159e-10 0)
(0.041493 -2.57439e-10 0)
(0.041493 -3.0143e-10 0)
(0.041493 -3.52698e-10 0)
(0.0411009 -3.26857e-10 0)
(0.0411009 -2.26476e-10 0)
(0.0411009 -9.03077e-11 0)
(0.0411009 4.86948e-11 0)
(0.0411009 1.45426e-10 0)
(0.0411009 2.04054e-10 0)
(0.0411009 2.32415e-10 0)
(0.0411009 2.37553e-10 0)
(0.0411009 2.25798e-10 0)
(0.0411009 2.01602e-10 0)
(0.0411009 1.66808e-10 0)
(0.0411009 1.24206e-10 0)
(0.0411009 7.64822e-11 0)
(0.0411009 2.4641e-11 0)
(0.0411009 -3.29701e-11 0)
(0.0411009 -9.6703e-11 0)
(0.0411009 -1.62495e-10 0)
(0.0411009 -2.24021e-10 0)
(0.0411009 -2.55069e-10 0)
(0.0411009 -3.06374e-10 0)
(0.0406588 -2.57156e-10 0)
(0.0406588 -1.58941e-10 0)
(0.0406588 -1.72048e-11 0)
(0.0406588 1.08528e-10 0)
(0.0406588 1.89836e-10 0)
(0.0406588 2.29858e-10 0)
(0.0406588 2.36423e-10 0)
(0.0406588 2.20012e-10 0)
(0.0406588 1.88419e-10 0)
(0.0406588 1.46138e-10 0)
(0.0406588 9.73077e-11 0)
(0.0406588 4.72702e-11 0)
(0.0406588 5.14078e-13 0)
(0.0406588 -4.21725e-11 0)
(0.0406588 -8.27616e-11 0)
(0.0406588 -1.21115e-10 0)
(0.0406588 -1.54851e-10 0)
(0.0406588 -1.86255e-10 0)
(0.0406588 -1.90429e-10 0)
(0.0406588 -2.22238e-10 0)
(0.0401652 -4.82349e-10 0)
(0.0401652 -4.21966e-10 0)
(0.0401652 -2.79217e-10 0)
(0.0401652 -1.38879e-10 0)
(0.0401652 -2.35503e-11 0)
(0.0401652 7.81713e-11 0)
(0.0401652 1.71197e-10 0)
(0.0401652 2.40983e-10 0)
(0.0401652 2.80813e-10 0)
(0.0401652 3.05885e-10 0)
(0.0401652 3.20827e-10 0)
(0.0401652 3.02244e-10 0)
(0.0401652 2.53063e-10 0)
(0.0401652 1.91603e-10 0)
(0.0401652 1.16077e-10 0)
(0.0401652 1.7821e-11 0)
(0.0401652 -9.91638e-11 0)
(0.0401652 -2.10484e-10 0)
(0.0401652 -2.82611e-10 0)
(0.0401652 -3.68882e-10 0)
(0.0396202 5.12104e-11 0)
(0.0396202 2.35922e-10 0)
(0.0396202 4.32578e-10 0)
(0.0396202 5.54768e-10 0)
(0.0396202 6.00094e-10 0)
(0.0396203 5.73182e-10 0)
(0.0396203 4.76981e-10 0)
(0.0396203 3.27721e-10 0)
(0.0396203 1.58717e-10 0)
(0.0396202 -1.90102e-11 0)
(0.0396202 -1.95859e-10 0)
(0.0396202 -3.44703e-10 0)
(0.0396202 -4.43826e-10 0)
(0.0396202 -4.93946e-10 0)
(0.0396202 -5.03375e-10 0)
(0.0396202 -4.74471e-10 0)
(0.0396202 -4.04516e-10 0)
(0.0396202 -3.04269e-10 0)
(0.0396202 -1.66236e-10 0)
(0.0396202 -3.40856e-11 0)
(0.0390251 -1.50413e-09 0)
(0.0390251 -1.36415e-09 0)
(0.0390251 -1.11865e-09 0)
(0.0390251 -9.32988e-10 0)
(0.0390251 -7.98149e-10 0)
(0.0390251 -6.51342e-10 0)
(0.0390251 -3.45706e-10 0)
(0.0390251 2.17136e-10 0)
(0.0390251 9.17016e-10 0)
(0.0390251 1.33577e-09 0)
(0.0390251 1.48872e-09 0)
(0.0390251 1.43663e-09 0)
(0.0390251 1.29311e-09 0)
(0.0390251 1.12896e-09 0)
(0.0390251 9.25038e-10 0)
(0.0390251 6.20975e-10 0)
(0.0390251 1.90834e-10 0)
(0.0390251 -3.98113e-10 0)
(0.0390251 -1.06131e-09 0)
(0.0390251 -1.40925e-09 0)
(0.0383825 1.85176e-10 0)
(0.0383825 6.81035e-10 0)
(0.0383825 1.11961e-09 0)
(0.0383825 1.43256e-09 0)
(0.0383825 1.64583e-09 0)
(0.0383825 1.72588e-09 0)
(0.0383825 1.65124e-09 0)
(0.0383825 1.37279e-09 0)
(0.0383825 7.60209e-10 0)
(0.0383825 1.34656e-10 0)
(0.0383825 -3.32432e-10 0)
(0.0383825 -7.13966e-10 0)
(0.0383825 -1.00727e-09 0)
(0.0383825 -1.25411e-09 0)
(0.0383825 -1.46779e-09 0)
(0.0383825 -1.61565e-09 0)
(0.0383825 -1.64731e-09 0)
(0.0383825 -1.43788e-09 0)
(0.0383825 -8.82454e-10 0)
(0.0383825 -2.80658e-10 0)
(0.0376963 -1.50645e-10 0)
(0.0376963 -2.50897e-10 0)
(0.0376963 -2.42423e-10 0)
(0.0376963 -1.44933e-10 0)
(0.0376963 2.36408e-11 0)
(0.0376963 1.96033e-10 0)
(0.0376963 2.5631e-10 0)
(0.0376963 1.70978e-10 0)
(0.0376963 2.83872e-11 0)
(0.0376963 -1.93064e-11 0)
(0.0376963 -1.68913e-11 0)
(0.0376963 2.91211e-11 0)
(0.0376963 7.41688e-11 0)
(0.0376963 6.38736e-11 0)
(0.0376963 9.57333e-12 0)
(0.0376963 -2.52731e-11 0)
(0.0376963 -2.75918e-11 0)
(0.0376963 -1.44785e-11 0)
(0.0376963 1.12744e-11 0)
(0.0376963 -2.42502e-11 0)
(0.0369713 -1.94591e-10 0)
(0.0369713 -1.57151e-10 0)
(0.0369713 -5.45096e-11 0)
(0.0369713 4.14028e-11 0)
(0.0369713 1.23755e-10 0)
(0.0369713 1.83668e-10 0)
(0.0369713 2.25404e-10 0)
(0.0369713 2.50137e-10 0)
(0.0369713 2.55675e-10 0)
(0.0369713 2.39553e-10 0)
(0.0369713 2.02228e-10 0)
(0.0369713 1.49171e-10 0)
(0.0369713 8.96772e-11 0)
(0.0369713 1.64911e-11 0)
(0.0369713 -6.71043e-11 0)
(0.0369713 -1.46954e-10 0)
(0.0369713 -2.2139e-10 0)
(0.0369713 -2.88551e-10 0)
(0.0369713 -3.23473e-10 0)
(0.0369713 -2.5224e-10 0)
(0.036213 -6.66585e-11 0)
(0.036213 -1.42894e-10 0)
(0.036213 -1.1128e-10 0)
(0.036213 -7.06764e-11 0)
(0.036213 -3.19658e-11 0)
(0.036213 1.49311e-13 0)
(0.036213 2.7216e-11 0)
(0.036213 4.86337e-11 0)
(0.036213 6.48718e-11 0)
(0.036213 7.51547e-11 0)
(0.036213 8.00395e-11 0)
(0.036213 7.7693e-11 0)
(0.036213 7.03155e-11 0)
(0.036213 5.71659e-11 0)
(0.036213 3.65395e-11 0)
(0.036213 1.06434e-11 0)
(0.036213 -2.08539e-11 0)
(0.036213 -5.74969e-11 0)
(0.036213 -8.41762e-11 0)
(0.036213 -3.25951e-11 0)
(0.0354259 -7.88556e-11 0)
(0.0354259 -1.12669e-10 0)
(0.0354259 -6.433e-11 0)
(0.0354259 -2.45703e-11 0)
(0.0354259 6.67822e-12 0)
(0.0354259 2.97004e-11 0)
(0.0354259 4.76103e-11 0)
(0.0354259 6.0512e-11 0)
(0.0354259 6.89717e-11 0)
(0.0354259 7.31347e-11 0)
(0.0354259 7.32918e-11 0)
(0.0354259 6.93311e-11 0)
(0.0354259 6.14604e-11 0)
(0.0354259 4.9673e-11 0)
(0.0354259 3.22366e-11 0)
(0.0354259 9.10132e-12 0)
(0.0354259 -2.05935e-11 0)
(0.0354259 -5.65467e-11 0)
(0.0354259 -9.15672e-11 0)
(0.0354259 -6.3189e-11 0)
(0.0346119 -8.09456e-11 0)
(0.0346119 -9.67225e-11 0)
(0.0346119 -5.84564e-11 0)
(0.0346119 -2.52406e-11 0)
(0.0346119 1.14229e-12 0)
(0.0346119 2.0216e-11 0)
(0.0346119 3.43108e-11 0)
(0.0346119 4.43391e-11 0)
(0.0346119 5.13592e-11 0)
(0.0346119 5.56163e-11 0)
(0.0346119 5.70214e-11 0)
(0.0346119 5.57871e-11 0)
(0.0346119 5.13815e-11 0)
(0.0346119 4.31587e-11 0)
(0.0346119 2.89342e-11 0)
(0.0346119 8.54249e-12 0)
(0.0346119 -2.01839e-11 0)
(0.0346119 -5.6557e-11 0)
(0.0346119 -9.81288e-11 0)
(0.0346119 -8.48433e-11 0)
(0.0337703 -5.54527e-11 0)
(0.0337703 -7.43351e-11 0)
(0.0337703 -4.4172e-11 0)
(0.0337703 -1.58617e-11 0)
(0.0337703 6.97425e-12 0)
(0.0337703 2.32896e-11 0)
(0.0337703 3.48826e-11 0)
(0.0337703 4.28336e-11 0)
(0.0337703 4.82036e-11 0)
(0.0337703 5.15161e-11 0)
(0.0337703 5.28948e-11 0)
(0.0337703 5.23197e-11 0)
(0.0337703 4.91736e-11 0)
(0.0337703 4.29005e-11 0)
(0.0337703 3.13394e-11 0)
(0.0337703 1.40012e-11 0)
(0.0337703 -1.1525e-11 0)
(0.0337703 -4.17701e-11 0)
(0.0337703 -7.73813e-11 0)
(0.0337703 -5.99415e-11 0)
(0.0328997 -4.37314e-11 0)
(0.0328997 -6.67792e-11 0)
(0.0328997 -4.53563e-11 0)
(0.0328997 -2.27841e-11 0)
(0.0328997 -4.15714e-12 0)
(0.0328997 9.24905e-12 0)
(0.0328997 1.86109e-11 0)
(0.0328997 2.50398e-11 0)
(0.0328997 2.93786e-11 0)
(0.0328997 3.23971e-11 0)
(0.0328997 3.41043e-11 0)
(0.0328997 3.44598e-11 0)
(0.0328997 3.29748e-11 0)
(0.0328997 2.90981e-11 0)
(0.0328997 2.08015e-11 0)
(0.0328997 7.63266e-12 0)
(0.0328997 -1.35684e-11 0)
(0.0328997 -3.72092e-11 0)
(0.0328997 -6.55065e-11 0)
(0.0328997 -4.66027e-11 0)
(0.0319979 -1.81488e-11 0)
(0.0319979 -4.45471e-11 0)
(0.0319979 -3.18636e-11 0)
(0.0319979 -1.54043e-11 0)
(0.0319979 -1.2137e-12 0)
(0.0319979 9.26383e-12 0)
(0.0319979 1.64026e-11 0)
(0.0319979 2.14621e-11 0)
(0.0319979 2.50666e-11 0)
(0.0319979 2.78967e-11 0)
(0.0319979 3.00287e-11 0)
(0.0319979 3.13403e-11 0)
(0.0319979 3.14756e-11 0)
(0.0319979 2.98992e-11 0)
(0.0319979 2.47187e-11 0)
(0.0319979 1.55428e-11 0)
(0.0319979 -8.58434e-13 0)
(0.0319979 -1.83656e-11 0)
(0.0319979 -3.91508e-11 0)
(0.0319979 -1.91816e-11 0)
(0.0310622 -8.61728e-12 0)
(0.0310622 -3.74382e-11 0)
(0.0310622 -3.28764e-11 0)
(0.0310622 -2.23122e-11 0)
(0.0310622 -1.25448e-11 0)
(0.0310622 -4.90154e-12 0)
(0.0310622 3.72521e-13 0)
(0.0310622 4.36266e-12 0)
(0.0310622 7.40623e-12 0)
(0.0310622 1.00086e-11 0)
(0.0310622 1.24378e-11 0)
(0.0310622 1.44206e-11 0)
(0.0310622 1.57495e-11 0)
(0.0310622 1.5839e-11 0)
(0.0310622 1.32067e-11 0)
(0.0310622 7.32279e-12 0)
(0.0310622 -4.43589e-12 0)
(0.0310622 -1.62931e-11 0)
(0.0310622 -2.97896e-11 0)
(0.0310622 -9.18341e-12 0)
(0.0300887 1.11468e-11 0)
(0.0300887 -1.96714e-11 0)
(0.0300887 -2.10283e-11 0)
(0.0300887 -1.50932e-11 0)
(0.0300887 -8.99802e-12 0)
(0.0300887 -3.50079e-12 0)
(0.0300887 6.52858e-13 0)
(0.0300887 4.22052e-12 0)
(0.0300887 7.40529e-12 0)
(0.0300887 1.03989e-11 0)
(0.0300887 1.35065e-11 0)
(0.0300887 1.63683e-11 0)
(0.0300887 1.88117e-11 0)
(0.0300887 2.0256e-11 0)
(0.0300887 1.95454e-11 0)
(0.0300887 1.60277e-11 0)
(0.0300887 8.01137e-12 0)
(0.0300887 -6.79026e-13 0)
(0.0300887 -8.69594e-12 0)
(0.0300887 1.20314e-11 0)
(0.0290725 2.04043e-11 0)
(0.0290725 -1.1854e-11 0)
(0.0290725 -1.86509e-11 0)
(0.0290725 -1.89708e-11 0)
(0.0290725 -1.85037e-11 0)
(0.0290725 -1.7287e-11 0)
(0.0290725 -1.60998e-11 0)
(0.0290725 -1.44493e-11 0)
(0.0290725 -1.24064e-11 0)
(0.0290725 -9.83804e-12 0)
(0.0290725 -6.64776e-12 0)
(0.0290725 -3.10018e-12 0)
(0.0290725 6.09055e-13 0)
(0.0290725 3.94124e-12 0)
(0.0290725 6.1687e-12 0)
(0.0290725 6.47671e-12 0)
(0.0290725 4.29662e-12 0)
(0.0290725 -1.0205e-14 0)
(0.0290725 -9.0826e-13 0)
(0.0290725 2.21987e-11 0)
(0.0280072 4.54615e-11 0)
(0.0280072 1.33069e-11 0)
(0.0280072 1.71922e-12 0)
(0.0280072 -3.7061e-12 0)
(0.0280072 -8.02447e-12 0)
(0.0280072 -1.10141e-11 0)
(0.0280072 -1.3078e-11 0)
(0.0280072 -1.38627e-11 0)
(0.0280072 -1.35117e-11 0)
(0.0280072 -1.19516e-11 0)
(0.0280072 -9.22746e-12 0)
(0.0280072 -5.52559e-12 0)
(0.0280072 -9.47284e-13 0)
(0.0280072 3.96264e-12 0)
(0.0280072 8.74837e-12 0)
(0.0280072 1.24729e-11 0)
(0.0280072 1.45704e-11 0)
(0.0280072 1.53372e-11 0)
(0.0280072 1.9104e-11 0)
(0.0280072 4.52347e-11 0)
(0.026885 2.51708e-11 0)
(0.026885 -6.98598e-12 0)
(0.026885 -1.85522e-11 0)
(0.026885 -2.27526e-11 0)
(0.026885 -2.51222e-11 0)
(0.026885 -2.60864e-11 0)
(0.026885 -2.58665e-11 0)
(0.026885 -2.44285e-11 0)
(0.026885 -2.18876e-11 0)
(0.026885 -1.82016e-11 0)
(0.026885 -1.3571e-11 0)
(0.026885 -8.29087e-12 0)
(0.026885 -2.30944e-12 0)
(0.026885 3.67767e-12 0)
(0.026885 9.20893e-12 0)
(0.026885 1.30674e-11 0)
(0.026885 1.4248e-11 0)
(0.026885 1.2973e-11 0)
(0.026885 1.15955e-11 0)
(0.026885 3.01035e-11 0)
(0.0256961 1.86317e-11 0)
(0.0256961 -1.42208e-11 0)
(0.0256961 -2.58632e-11 0)
(0.0256961 -2.76952e-11 0)
(0.0256961 -2.669e-11 0)
(0.0256961 -2.4184e-11 0)
(0.0256961 -2.04445e-11 0)
(0.0256961 -1.56631e-11 0)
(0.0256961 -1.0036e-11 0)
(0.0256961 -3.66712e-12 0)
(0.0256961 3.21236e-12 0)
(0.0256961 1.03939e-11 0)
(0.0256961 1.78073e-11 0)
(0.0256961 2.49061e-11 0)
(0.0256961 3.12846e-11 0)
(0.0256961 3.57842e-11 0)
(0.0256961 3.64551e-11 0)
(0.0256961 3.25931e-11 0)
(0.0256961 2.52899e-11 0)
(0.0256961 3.16153e-11 0)
(0.024427 1.8993e-11 0)
(0.024427 -8.304e-12 0)
(0.024427 -2.07057e-11 0)
(0.024427 -2.48074e-11 0)
(0.024427 -2.62081e-11 0)
(0.024427 -2.6399e-11 0)
(0.024427 -2.54321e-11 0)
(0.024427 -2.36257e-11 0)
(0.024427 -2.11049e-11 0)
(0.024427 -1.79509e-11 0)
(0.024427 -1.43367e-11 0)
(0.024427 -1.02055e-11 0)
(0.024427 -5.377e-12 0)
(0.024427 -5.19026e-14 0)
(0.024427 5.71345e-12 0)
(0.024427 1.1477e-11 0)
(0.024427 1.61325e-11 0)
(0.024427 1.88744e-11 0)
(0.024427 1.91131e-11 0)
(0.024427 2.86411e-11 0)
(0.0230683 3.29133e-12 0)
(0.0230683 -4.06553e-12 0)
(0.0230683 -2.68778e-12 0)
(0.0230683 9.75666e-13 0)
(0.0230683 4.55149e-12 0)
(0.0230683 7.21817e-12 0)
(0.0230683 9.39975e-12 0)
(0.0230683 1.10119e-11 0)
(0.0230683 1.21704e-11 0)
(0.0230683 1.29199e-11 0)
(0.0230683 1.32129e-11 0)
(0.0230683 1.29338e-11 0)
(0.0230683 1.22721e-11 0)
(0.0230683 1.10279e-11 0)
(0.0230683 9.09338e-12 0)
(0.0230683 6.46813e-12 0)
(0.0230683 2.77322e-12 0)
(0.0230683 -2.37607e-12 0)
(0.0230683 -7.7823e-12 0)
(0.0230683 -2.19206e-13 0)
(0.0216516 -1.77888e-11 0)
(0.0216516 -1.94096e-11 0)
(0.0216516 -1.48238e-11 0)
(0.0216516 -1.02744e-11 0)
(0.0216516 -6.53615e-12 0)
(0.0216516 -3.88969e-12 0)
(0.0216516 -1.75225e-12 0)
(0.0216516 -1.98546e-13 0)
(0.0216516 9.298e-13 0)
(0.0216516 1.71675e-12 0)
(0.0216516 2.15737e-12 0)
(0.0216516 2.07266e-12 0)
(0.0216516 1.77826e-12 0)
(0.0216516 1.05683e-12 0)
(0.0216516 -2.45382e-13 0)
(0.0216516 -2.05887e-12 0)
(0.0216516 -4.99656e-12 0)
(0.0216516 -9.99291e-12 0)
(0.0216516 -1.80248e-11 0)
(0.0216516 -1.90066e-11 0)
(0.0202498 -8.16323e-12 0)
(0.0202498 -8.40941e-12 0)
(0.0202498 -3.43779e-12 0)
(0.0202498 9.05912e-13 0)
(0.0202498 4.23207e-12 0)
(0.0202498 7.06584e-12 0)
(0.0202498 9.40792e-12 0)
(0.0202498 1.12252e-11 0)
(0.0202498 1.26363e-11 0)
(0.0202498 1.36669e-11 0)
(0.0202498 1.42946e-11 0)
(0.0202498 1.44316e-11 0)
(0.0202498 1.43235e-11 0)
(0.0202498 1.38278e-11 0)
(0.0202498 1.28058e-11 0)
(0.0202498 1.15366e-11 0)
(0.0202498 9.65979e-12 0)
(0.0202498 5.60983e-12 0)
(0.0202498 -2.09333e-12 0)
(0.0202498 -6.67534e-12 0)
(0.0189121 -1.6836e-11 0)
(0.0189121 -1.7657e-11 0)
(0.0189121 -1.33456e-11 0)
(0.0189121 -1.04131e-11 0)
(0.0189121 -8.35832e-12 0)
(0.0189121 -6.25203e-12 0)
(0.0189121 -4.60289e-12 0)
(0.0189121 -3.36125e-12 0)
(0.0189121 -2.38365e-12 0)
(0.0189121 -1.64154e-12 0)
(0.0189121 -1.20512e-12 0)
(0.0189121 -1.05559e-12 0)
(0.0189121 -1.13191e-12 0)
(0.0189121 -1.47604e-12 0)
(0.0189121 -2.20159e-12 0)
(0.0189121 -2.95678e-12 0)
(0.0189121 -3.97012e-12 0)
(0.0189121 -6.78087e-12 0)
(0.0189121 -1.29775e-11 0)
(0.0189121 -1.63044e-11 0)
(0.0176625 4.42571e-12 0)
(0.0176625 2.82318e-12 0)
(0.0176625 5.31037e-12 0)
(0.0176625 6.67244e-12 0)
(0.0176625 7.00044e-12 0)
(0.0176625 7.67916e-12 0)
(0.0176625 8.12127e-12 0)
(0.0176625 8.35426e-12 0)
(0.0176625 8.50845e-12 0)
(0.0176625 8.70728e-12 0)
(0.0176625 8.8084e-12 0)
(0.0176625 8.91948e-12 0)
(0.0176625 8.95502e-12 0)
(0.0176625 8.94741e-12 0)
(0.0176625 8.70004e-12 0)
(0.0176625 8.66699e-12 0)
(0.0176625 8.58136e-12 0)
(0.0176625 7.38926e-12 0)
(0.0176625 3.47031e-12 0)
(0.0176625 3.35632e-12 0)
(0.0165156 -2.31756e-12 0)
(0.0165156 -4.42308e-12 0)
(0.0165156 -4.71013e-12 0)
(0.0165156 -5.287e-12 0)
(0.0165156 -6.79485e-12 0)
(0.0165156 -7.88303e-12 0)
(0.0165156 -9.00778e-12 0)
(0.0165156 -9.89703e-12 0)