/*--------------------------------*- C++ -*----------------------------------*\
| =========                 |                                                 |
| \\      /  F ield         | OpenFOAM: The Open Source CFD Toolbox           |
|  \\    /   O peration     | Version:  v1906                                 |
|   \\  /    A nd           | Web:      www.OpenFOAM.com                      |
|    \\/     M anipulation  |                                                 |
\*---------------------------------------------------------------------------*/
FoamFile
{
    version     2.0;
    format      ascii;
    class       volVectorField;
    location    "19.44";
    object      wallShearStress;
}
// * * * * * * * * * * * * * * * * * * * * * * * * * * * * * * * * * * * * * //

dimensions      [0 2 -2 0 0 0 0];


internalField   uniform (0 0 0);

boundaryField
{
    top
    {
        type            symmetryPlane;
    }
    bottom
    {
        type            calculated;
        value           nonuniform List<vector> 
20
(
(-0.0123837 -2.82182e-11 0)
(-0.0123837 -2.31747e-11 0)
(-0.0123837 -1.79564e-11 0)
(-0.0123837 -1.29632e-11 0)
(-0.0123837 -8.81714e-12 0)
(-0.0123837 -5.66799e-12 0)
(-0.0123837 -3.15073e-12 0)
(-0.0123837 -1.05789e-12 0)
(-0.0123837 6.96916e-13 0)
(-0.0123837 2.1979e-12 0)
(-0.0123837 3.5306e-12 0)
(-0.0123837 4.77381e-12 0)
(-0.0123837 6.00449e-12 0)
(-0.0123837 7.33656e-12 0)
(-0.0123837 8.94172e-12 0)
(-0.0123837 1.06101e-11 0)
(-0.0123837 1.30901e-11 0)
(-0.0123837 1.56411e-11 0)
(-0.0123837 2.19411e-11 0)
(-0.0123837 5.81304e-12 0)
)
;
    }
    inlet
    {
        type            cyclic;
    }
    outlet
    {
        type            cyclic;
    }
    frontAndBack
    {
        type            empty;
    }
}


// ************************************************************************* //
