# Wall shear stress
# Time        	patch         	min           	max           
1.000000e-02	bottomWall	(-2.889659e-03 7.277152e-16 5.032185e-35)	(-2.889659e-03 7.277152e-16 5.032185e-35)
2.000000e-02	bottomWall	(-2.099960e-03 1.748342e-15 1.004560e-34)	(-2.099960e-03 1.748342e-15 1.004560e-34)
3.000000e-02	bottomWall	(-3.875092e-03 3.294452e-15 9.594612e-35)	(-3.875092e-03 3.294452e-15 9.594612e-35)
4.000000e-02	bottomWall	(-4.383769e-03 3.034951e-15 1.113790e-34)	(-4.383769e-03 3.034951e-15 1.113790e-34)
5.000000e-02	bottomWall	(-4.630477e-03 4.158174e-15 1.525046e-34)	(-4.630477e-03 4.158174e-15 1.525046e-34)
6.000000e-02	bottomWall	(-4.760570e-03 4.842614e-15 1.628935e-34)	(-4.760570e-03 4.842614e-15 1.628935e-34)
7.000000e-02	bottomWall	(-4.824718e-03 4.514811e-15 2.084038e-34)	(-4.824718e-03 4.514811e-15 2.084038e-34)
8.000000e-02	bottomWall	(-4.847127e-03 5.673732e-15 2.302758e-34)	(-4.847127e-03 5.673732e-15 2.302758e-34)
9.000000e-02	bottomWall	(-4.842212e-03 5.325223e-15 2.206390e-34)	(-4.842212e-03 5.325223e-15 2.206390e-34)
1.000000e-01	bottomWall	(-4.819444e-03 5.426024e-15 2.309164e-34)	(-4.819444e-03 5.426024e-15 2.309164e-34)
1.100000e-01	bottomWall	(-4.785176e-03 3.615125e-15 1.507531e-34)	(-4.785176e-03 3.615125e-15 1.507531e-34)
1.200000e-01	bottomWall	(-4.743650e-03 2.556784e-15 1.108365e-34)	(-4.743650e-03 2.556784e-15 1.108365e-34)
1.300000e-01	bottomWall	(-4.697677e-03 1.464198e-15 6.340867e-35)	(-4.697677e-03 1.464198e-15 6.340867e-35)
1.400000e-01	bottomWall	(-4.649107e-03 3.028009e-16 4.688247e-36)	(-4.649107e-03 3.028009e-16 4.688247e-36)
1.500000e-01	bottomWall	(-4.599151e-03 -1.344551e-15 -5.638017e-35)	(-4.599151e-03 -1.344551e-15 -5.638017e-35)
1.600000e-01	bottomWall	(-4.548595e-03 -1.101802e-15 -8.141107e-35)	(-4.548595e-03 -1.101802e-15 -8.141107e-35)
1.700000e-01	bottomWall	(-4.497940e-03 -4.391624e-16 -2.048304e-35)	(-4.497940e-03 -4.391624e-16 -2.048304e-35)
1.800000e-01	bottomWall	(-4.447499e-03 6.312073e-16 3.442405e-35)	(-4.447499e-03 6.312073e-16 3.442405e-35)
1.900000e-01	bottomWall	(-4.397458e-03 1.484685e-15 6.762075e-35)	(-4.397458e-03 1.484685e-15 6.762075e-35)
2.000000e-01	bottomWall	(-4.347918e-03 1.433973e-15 5.493409e-35)	(-4.347918e-03 1.433973e-15 5.493409e-35)
2.100000e-01	bottomWall	(-4.298925e-03 1.050249e-15 6.938035e-35)	(-4.298925e-03 1.050249e-15 6.938035e-35)
2.200000e-01	bottomWall	(-4.250487e-03 4.498371e-16 3.197194e-35)	(-4.250487e-03 4.498371e-16 3.197194e-35)
2.300000e-01	bottomWall	(-4.202588e-03 -6.914876e-16 -3.965902e-35)	(-4.202588e-03 -6.914876e-16 -3.965902e-35)
2.400000e-01	bottomWall	(-4.155198e-03 -9.867019e-16 -5.178048e-35)	(-4.155198e-03 -9.867019e-16 -5.178048e-35)
2.500000e-01	bottomWall	(-4.108278e-03 4.577025e-16 2.109717e-35)	(-4.108278e-03 4.577025e-16 2.109717e-35)
2.600000e-01	bottomWall	(-4.061781e-03 2.960604e-15 1.597300e-34)	(-4.061781e-03 2.960604e-15 1.597300e-34)
2.700000e-01	bottomWall	(-4.015661e-03 5.753386e-15 3.216026e-34)	(-4.015661e-03 5.753386e-15 3.216026e-34)
2.800000e-01	bottomWall	(-3.969871e-03 8.490232e-15 4.972348e-34)	(-3.969871e-03 8.490232e-15 4.972348e-34)
2.900000e-01	bottomWall	(-3.924364e-03 9.955863e-15 5.796548e-34)	(-3.924364e-03 9.955863e-15 5.796548e-34)
3.000000e-01	bottomWall	(-3.879096e-03 1.095194e-14 6.628951e-34)	(-3.879096e-03 1.095194e-14 6.628951e-34)
3.100000e-01	bottomWall	(-3.834024e-03 1.251349e-14 7.711841e-34)	(-3.834024e-03 1.251349e-14 7.711841e-34)
3.200000e-01	bottomWall	(-3.789109e-03 1.282371e-14 7.885770e-34)	(-3.789109e-03 1.282371e-14 7.885770e-34)
3.300000e-01	bottomWall	(-3.744314e-03 1.381805e-14 8.481741e-34)	(-3.744314e-03 1.381805e-14 8.481741e-34)
3.400000e-01	bottomWall	(-3.699604e-03 1.442785e-14 9.222353e-34)	(-3.699604e-03 1.442785e-14 9.222353e-34)
3.500000e-01	bottomWall	(-3.654947e-03 1.458758e-14 9.329060e-34)	(-3.654947e-03 1.458758e-14 9.329060e-34)
3.600000e-01	bottomWall	(-3.610316e-03 1.490330e-14 9.609929e-34)	(-3.610316e-03 1.490330e-14 9.609929e-34)
3.700000e-01	bottomWall	(-3.565682e-03 1.474092e-14 9.734574e-34)	(-3.565682e-03 1.474092e-14 9.734574e-34)
3.800000e-01	bottomWall	(-3.521024e-03 1.490794e-14 9.784408e-34)	(-3.521024e-03 1.490794e-14 9.784408e-34)
3.900000e-01	bottomWall	(-3.476318e-03 1.596891e-14 1.058547e-33)	(-3.476318e-03 1.596891e-14 1.058547e-33)
4.000000e-01	bottomWall	(-3.431545e-03 1.590938e-14 1.077336e-33)	(-3.431545e-03 1.590938e-14 1.077336e-33)
4.100000e-01	bottomWall	(-3.386688e-03 1.601011e-14 1.089815e-33)	(-3.386688e-03 1.601011e-14 1.089815e-33)
4.200000e-01	bottomWall	(-3.341731e-03 1.647679e-14 1.122753e-33)	(-3.341731e-03 1.647679e-14 1.122753e-33)
4.300000e-01	bottomWall	(-3.296661e-03 1.711479e-14 1.185230e-33)	(-3.296661e-03 1.711479e-14 1.185230e-33)
4.400000e-01	bottomWall	(-3.251466e-03 1.790892e-14 1.240331e-33)	(-3.251466e-03 1.790892e-14 1.240331e-33)
4.500000e-01	bottomWall	(-3.206135e-03 1.767906e-14 1.237919e-33)	(-3.206135e-03 1.767906e-14 1.237919e-33)
4.600000e-01	bottomWall	(-3.160659e-03 1.792781e-14 1.234412e-33)	(-3.160659e-03 1.792781e-14 1.234412e-33)
4.700000e-01	bottomWall	(-3.115032e-03 1.731240e-14 1.226828e-33)	(-3.115032e-03 1.731240e-14 1.226828e-33)
4.800000e-01	bottomWall	(-3.069245e-03 1.807373e-14 1.281906e-33)	(-3.069245e-03 1.807373e-14 1.281906e-33)
4.900000e-01	bottomWall	(-3.023295e-03 1.825061e-14 1.317969e-33)	(-3.023295e-03 1.825061e-14 1.317969e-33)
5.000000e-01	bottomWall	(-2.977178e-03 1.788580e-14 1.285819e-33)	(-2.977178e-03 1.788580e-14 1.285819e-33)
5.100000e-01	bottomWall	(-2.930891e-03 1.813190e-14 1.324144e-33)	(-2.930891e-03 1.813190e-14 1.324144e-33)
5.200000e-01	bottomWall	(-2.884431e-03 1.771263e-14 1.283123e-33)	(-2.884431e-03 1.771263e-14 1.283123e-33)
5.300000e-01	bottomWall	(-2.837799e-03 1.771078e-14 1.293624e-33)	(-2.837799e-03 1.771078e-14 1.293624e-33)
5.400000e-01	bottomWall	(-2.790994e-03 1.749076e-14 1.282494e-33)	(-2.790994e-03 1.749076e-14 1.282494e-33)
5.500000e-01	bottomWall	(-2.744017e-03 1.699785e-14 1.259531e-33)	(-2.744017e-03 1.699785e-14 1.259531e-33)
5.600000e-01	bottomWall	(-2.696869e-03 1.733241e-14 1.251475e-33)	(-2.696869e-03 1.733241e-14 1.251475e-33)
5.700000e-01	bottomWall	(-2.649553e-03 1.827211e-14 1.352669e-33)	(-2.649553e-03 1.827211e-14 1.352669e-33)
5.800000e-01	bottomWall	(-2.602073e-03 5.738684e-15 4.256443e-34)	(-2.602073e-03 5.738684e-15 4.256443e-34)
5.900000e-01	bottomWall	(-2.554431e-03 -9.574753e-15 -7.164204e-34)	(-2.554431e-03 -9.574753e-15 -7.164204e-34)
6.000000e-01	bottomWall	(-2.506632e-03 -2.103183e-14 -1.563655e-33)	(-2.506632e-03 -2.103183e-14 -1.563655e-33)
6.100000e-01	bottomWall	(-2.458681e-03 -2.909107e-14 -2.169374e-33)	(-2.458681e-03 -2.909107e-14 -2.169374e-33)
6.200000e-01	bottomWall	(-2.410584e-03 -3.765952e-14 -2.817657e-33)	(-2.410584e-03 -3.765952e-14 -2.817657e-33)
6.300000e-01	bottomWall	(-2.362345e-03 -4.482785e-14 -3.359144e-33)	(-2.362345e-03 -4.482785e-14 -3.359144e-33)
6.400000e-01	bottomWall	(-2.313973e-03 -4.964321e-14 -3.729275e-33)	(-2.313973e-03 -4.964321e-14 -3.729275e-33)
6.500000e-01	bottomWall	(-2.265473e-03 -5.396580e-14 -4.060609e-33)	(-2.265473e-03 -5.396580e-14 -4.060609e-33)
6.600000e-01	bottomWall	(-2.216853e-03 -5.689424e-14 -4.283393e-33)	(-2.216853e-03 -5.689424e-14 -4.283393e-33)
6.700000e-01	bottomWall	(-2.168121e-03 -5.959290e-14 -4.488008e-33)	(-2.168121e-03 -5.959290e-14 -4.488008e-33)
6.800000e-01	bottomWall	(-2.119285e-03 -6.128030e-14 -4.588497e-33)	(-2.119285e-03 -6.128030e-14 -4.588497e-33)
6.900000e-01	bottomWall	(-2.070353e-03 -6.304193e-14 -4.747349e-33)	(-2.070353e-03 -6.304193e-14 -4.747349e-33)
7.000000e-01	bottomWall	(-2.021335e-03 -6.398297e-14 -4.833724e-33)	(-2.021335e-03 -6.398297e-14 -4.833724e-33)
7.100000e-01	bottomWall	(-1.972239e-03 -6.515371e-14 -4.904655e-33)	(-1.972239e-03 -6.515371e-14 -4.904655e-33)
7.200000e-01	bottomWall	(-1.923074e-03 -6.664379e-14 -5.012297e-33)	(-1.923074e-03 -6.664379e-14 -5.012297e-33)
7.300000e-01	bottomWall	(-1.873851e-03 -6.784865e-14 -5.103739e-33)	(-1.873851e-03 -6.784865e-14 -5.103739e-33)
7.400000e-01	bottomWall	(-1.824579e-03 -6.829753e-14 -5.121808e-33)	(-1.824579e-03 -6.829753e-14 -5.121808e-33)
7.500000e-01	bottomWall	(-1.775269e-03 -6.962194e-14 -5.227853e-33)	(-1.775269e-03 -6.962194e-14 -5.227853e-33)
7.600000e-01	bottomWall	(-1.725931e-03 -7.015129e-14 -5.270687e-33)	(-1.725931e-03 -7.015129e-14 -5.270687e-33)
7.700000e-01	bottomWall	(-1.676575e-03 -7.042187e-14 -5.276118e-33)	(-1.676575e-03 -7.042187e-14 -5.276118e-33)
7.800000e-01	bottomWall	(-1.627213e-03 -7.078871e-14 -5.300450e-33)	(-1.627213e-03 -7.078871e-14 -5.300450e-33)
7.900000e-01	bottomWall	(-1.577855e-03 -6.651871e-14 -4.976280e-33)	(-1.577855e-03 -6.651871e-14 -4.976280e-33)
8.000000e-01	bottomWall	(-1.528513e-03 -5.286600e-14 -3.940822e-33)	(-1.528513e-03 -5.286600e-14 -3.940822e-33)
8.100000e-01	bottomWall	(-1.479197e-03 -4.315714e-14 -3.214045e-33)	(-1.479197e-03 -4.315714e-14 -3.214045e-33)
8.200000e-01	bottomWall	(-1.429918e-03 -3.600625e-14 -2.682434e-33)	(-1.429918e-03 -3.600625e-14 -2.682434e-33)
8.300000e-01	bottomWall	(-1.380689e-03 -3.014052e-14 -2.240060e-33)	(-1.380689e-03 -3.014052e-14 -2.240060e-33)
8.400000e-01	bottomWall	(-1.331520e-03 -2.532021e-14 -1.864736e-33)	(-1.331520e-03 -2.532021e-14 -1.864736e-33)
8.500000e-01	bottomWall	(-1.282422e-03 -2.136289e-14 -1.562636e-33)	(-1.282422e-03 -2.136289e-14 -1.562636e-33)
8.600000e-01	bottomWall	(-1.233408e-03 -1.858847e-14 -1.376058e-33)	(-1.233408e-03 -1.858847e-14 -1.376058e-33)
8.700000e-01	bottomWall	(-1.184488e-03 -1.565878e-14 -1.155629e-33)	(-1.184488e-03 -1.565878e-14 -1.155629e-33)
8.800000e-01	bottomWall	(-1.135673e-03 -1.339428e-14 -9.725192e-34)	(-1.135673e-03 -1.339428e-14 -9.725192e-34)
8.900000e-01	bottomWall	(-1.086975e-03 -1.197988e-14 -8.582192e-34)	(-1.086975e-03 -1.197988e-14 -8.582192e-34)
9.000000e-01	bottomWall	(-1.038404e-03 -2.985497e-15 -2.174076e-34)	(-1.038404e-03 -2.985497e-15 -2.174076e-34)
9.100000e-01	bottomWall	(-9.899720e-04 6.118355e-15 4.654635e-34)	(-9.899720e-04 6.118355e-15 4.654635e-34)
9.200000e-01	bottomWall	(-9.416881e-04 1.305397e-14 9.515598e-34)	(-9.416881e-04 1.305397e-14 9.515598e-34)
9.300000e-01	bottomWall	(-8.935631e-04 1.866017e-14 1.358716e-33)	(-8.935631e-04 1.866017e-14 1.358716e-33)
9.400000e-01	bottomWall	(-8.456068e-04 2.349164e-14 1.705810e-33)	(-8.456068e-04 2.349164e-14 1.705810e-33)
9.500000e-01	bottomWall	(-7.978286e-04 2.798926e-14 2.015926e-33)	(-7.978286e-04 2.798926e-14 2.015926e-33)
9.600000e-01	bottomWall	(-7.502375e-04 3.056719e-14 2.214324e-33)	(-7.502375e-04 3.056719e-14 2.214324e-33)
9.700000e-01	bottomWall	(-7.028419e-04 3.314917e-14 2.394354e-33)	(-7.028419e-04 3.314917e-14 2.394354e-33)
9.800000e-01	bottomWall	(-6.556496e-04 3.496561e-14 2.529408e-33)	(-6.556496e-04 3.496561e-14 2.529408e-33)
9.900000e-01	bottomWall	(-6.086677e-04 3.666034e-14 2.641726e-33)	(-6.086677e-04 3.666034e-14 2.641726e-33)
1.000000e+00	bottomWall	(-5.619023e-04 3.964494e-14 2.848616e-33)	(-5.619023e-04 3.964494e-14 2.848616e-33)
1.010000e+00	bottomWall	(-5.153588e-04 4.268091e-14 3.068676e-33)	(-5.153588e-04 4.268091e-14 3.068676e-33)
1.020000e+00	bottomWall	(-4.690413e-04 4.547010e-14 3.268702e-33)	(-4.690413e-04 4.547010e-14 3.268702e-33)
1.030000e+00	bottomWall	(-4.229526e-04 3.279449e-14 2.357235e-33)	(-4.229526e-04 3.279449e-14 2.357235e-33)
1.040000e+00	bottomWall	(-3.770939e-04 2.107185e-14 1.517960e-33)	(-3.770939e-04 2.107185e-14 1.517960e-33)
1.050000e+00	bottomWall	(-3.314649e-04 1.195902e-14 8.712754e-34)	(-3.314649e-04 1.195902e-14 8.712754e-34)
1.060000e+00	bottomWall	(-2.860627e-04 3.820372e-15 2.766124e-34)	(-2.860627e-04 3.820372e-15 2.766124e-34)
1.070000e+00	bottomWall	(-2.408822e-04 3.700026e-15 2.727013e-34)	(-2.408822e-04 3.700026e-15 2.727013e-34)
1.080000e+00	bottomWall	(-1.959148e-04 4.137576e-15 2.932264e-34)	(-1.959148e-04 4.137576e-15 2.932264e-34)
1.090000e+00	bottomWall	(-1.511478e-04 4.244145e-15 3.165697e-34)	(-1.511478e-04 4.244145e-15 3.165697e-34)
1.100000e+00	bottomWall	(-1.065631e-04 4.140215e-15 3.028880e-34)	(-1.065631e-04 4.140215e-15 3.028880e-34)
1.110000e+00	bottomWall	(-6.213461e-05 3.276614e-15 2.590453e-34)	(-6.213461e-05 3.276614e-15 2.590453e-34)
1.120000e+00	bottomWall	(-1.782560e-05 1.412626e-15 1.106497e-34)	(-1.782560e-05 1.412626e-15 1.106497e-34)
1.130000e+00	bottomWall	(2.640883e-05 4.334195e-15 3.464276e-34)	(2.640883e-05 4.334195e-15 3.464276e-34)
1.140000e+00	bottomWall	(7.100996e-05 1.096092e-14 8.929255e-34)	(7.100996e-05 1.096092e-14 8.929255e-34)
1.150000e+00	bottomWall	(1.152799e-04 1.615796e-14 1.267853e-33)	(1.152799e-04 1.615796e-14 1.267853e-33)
1.160000e+00	bottomWall	(1.589742e-04 1.984714e-14 1.493205e-33)	(1.589742e-04 1.984714e-14 1.493205e-33)
1.170000e+00	bottomWall	(2.020079e-04 1.776239e-14 1.299328e-33)	(2.020079e-04 1.776239e-14 1.299328e-33)
1.180000e+00	bottomWall	(2.443653e-04 1.556028e-14 1.100495e-33)	(2.443653e-04 1.556028e-14 1.100495e-33)
1.190000e+00	bottomWall	(2.860540e-04 1.569264e-14 1.087808e-33)	(2.860540e-04 1.569264e-14 1.087808e-33)
1.200000e+00	bottomWall	(3.270911e-04 1.628493e-14 1.097295e-33)	(3.270911e-04 1.628493e-14 1.097295e-33)
1.210000e+00	bottomWall	(3.674981e-04 1.700849e-14 1.110201e-33)	(3.674981e-04 1.700849e-14 1.110201e-33)
1.220000e+00	bottomWall	(4.072995e-04 1.746552e-14 1.118644e-33)	(4.072995e-04 1.746552e-14 1.118644e-33)
1.230000e+00	bottomWall	(4.465217e-04 1.745002e-14 1.084836e-33)	(4.465217e-04 1.745002e-14 1.084836e-33)
1.240000e+00	bottomWall	(4.851928e-04 1.762933e-14 1.078740e-33)	(4.851928e-04 1.762933e-14 1.078740e-33)
1.250000e+00	bottomWall	(5.233423e-04 1.705569e-14 1.017822e-33)	(5.233423e-04 1.705569e-14 1.017822e-33)
1.260000e+00	bottomWall	(5.610011e-04 7.864142e-15 4.564702e-34)	(5.610011e-04 7.864142e-15 4.564702e-34)
1.270000e+00	bottomWall	(5.982013e-04 -2.005720e-15 -1.164594e-34)	(5.982013e-04 -2.005720e-15 -1.164594e-34)
1.280000e+00	bottomWall	(6.349765e-04 -1.044428e-14 -5.996746e-34)	(6.349765e-04 -1.044428e-14 -5.996746e-34)
1.290000e+00	bottomWall	(6.713612e-04 -1.806508e-14 -1.006264e-33)	(6.713612e-04 -1.806508e-14 -1.006264e-33)
1.300000e+00	bottomWall	(7.073908e-04 -2.431820e-14 -1.345456e-33)	(7.073908e-04 -2.431820e-14 -1.345456e-33)
1.310000e+00	bottomWall	(7.431015e-04 -2.999406e-14 -1.642654e-33)	(7.431015e-04 -2.999406e-14 -1.642654e-33)
1.320000e+00	bottomWall	(7.785303e-04 -3.156157e-14 -1.694662e-33)	(7.785303e-04 -3.156157e-14 -1.694662e-33)
1.330000e+00	bottomWall	(8.137144e-04 -2.851617e-14 -1.527142e-33)	(8.137144e-04 -2.851617e-14 -1.527142e-33)
1.340000e+00	bottomWall	(8.486910e-04 -2.571213e-14 -1.365257e-33)	(8.486910e-04 -2.571213e-14 -1.365257e-33)
1.350000e+00	bottomWall	(8.834977e-04 -2.354745e-14 -1.235212e-33)	(8.834977e-04 -2.354745e-14 -1.235212e-33)
1.360000e+00	bottomWall	(9.181714e-04 -1.851558e-14 -9.533117e-34)	(9.181714e-04 -1.851558e-14 -9.533117e-34)
1.370000e+00	bottomWall	(9.527488e-04 -1.204433e-14 -6.285777e-34)	(9.527488e-04 -1.204433e-14 -6.285777e-34)
1.380000e+00	bottomWall	(9.872655e-04 -6.886943e-15 -3.555084e-34)	(9.872655e-04 -6.886943e-15 -3.555084e-34)
1.390000e+00	bottomWall	(1.021756e-03 -1.883918e-15 -9.682632e-35)	(1.021756e-03 -1.883918e-15 -9.682632e-35)
1.400000e+00	bottomWall	(1.056255e-03 3.318281e-15 1.721262e-34)	(1.056255e-03 3.318281e-15 1.721262e-34)
1.410000e+00	bottomWall	(1.090795e-03 4.506865e-15 2.315729e-34)	(1.090795e-03 4.506865e-15 2.315729e-34)
1.420000e+00	bottomWall	(1.125405e-03 1.230901e-15 5.547775e-35)	(1.125405e-03 1.230901e-15 5.547775e-35)
1.430000e+00	bottomWall	(1.160117e-03 1.062903e-15 5.742470e-35)	(1.160117e-03 1.062903e-15 5.742470e-35)
1.440000e+00	bottomWall	(1.194957e-03 1.507556e-15 7.894489e-35)	(1.194957e-03 1.507556e-15 7.894489e-35)
1.450000e+00	bottomWall	(1.229951e-03 7.329366e-16 3.562041e-35)	(1.229951e-03 7.329366e-16 3.562041e-35)
1.460000e+00	bottomWall	(1.265123e-03 4.256252e-15 2.179667e-34)	(1.265123e-03 4.256252e-15 2.179667e-34)
1.470000e+00	bottomWall	(1.300496e-03 5.951948e-15 2.994432e-34)	(1.300496e-03 5.951948e-15 2.994432e-34)
1.480000e+00	bottomWall	(1.336090e-03 6.367998e-15 3.252685e-34)	(1.336090e-03 6.367998e-15 3.252685e-34)
1.490000e+00	bottomWall	(1.371922e-03 7.390904e-15 3.774716e-34)	(1.371922e-03 7.390904e-15 3.774716e-34)
1.500000e+00	bottomWall	(1.408011e-03 8.321275e-15 4.248793e-34)	(1.408011e-03 8.321275e-15 4.248793e-34)
1.510000e+00	bottomWall	(1.444369e-03 7.275029e-15 3.749494e-34)	(1.444369e-03 7.275029e-15 3.749494e-34)
1.520000e+00	bottomWall	(1.481011e-03 2.658215e-15 1.326930e-34)	(1.481011e-03 2.658215e-15 1.326930e-34)
1.530000e+00	bottomWall	(1.517947e-03 -1.732181e-15 -9.114063e-35)	(1.517947e-03 -1.732181e-15 -9.114063e-35)
1.540000e+00	bottomWall	(1.555188e-03 -4.734423e-15 -2.440042e-34)	(1.555188e-03 -4.734423e-15 -2.440042e-34)
1.550000e+00	bottomWall	(1.592740e-03 -4.628156e-15 -2.459733e-34)	(1.592740e-03 -4.628156e-15 -2.459733e-34)
1.560000e+00	bottomWall	(1.630610e-03 -3.516236e-15 -1.860514e-34)	(1.630610e-03 -3.516236e-15 -1.860514e-34)
1.570000e+00	bottomWall	(1.668804e-03 -1.223989e-15 -6.556844e-35)	(1.668804e-03 -1.223989e-15 -6.556844e-35)
1.580000e+00	bottomWall	(1.707326e-03 1.442805e-15 8.166955e-35)	(1.707326e-03 1.442805e-15 8.166955e-35)
1.590000e+00	bottomWall	(1.746177e-03 3.856637e-16 2.151627e-35)	(1.746177e-03 3.856637e-16 2.151627e-35)
1.600000e+00	bottomWall	(1.785360e-03 5.235274e-16 2.757196e-35)	(1.785360e-03 5.235274e-16 2.757196e-35)
1.610000e+00	bottomWall	(1.824875e-03 1.739669e-15 9.461529e-35)	(1.824875e-03 1.739669e-15 9.461529e-35)
1.620000e+00	bottomWall	(1.864721e-03 2.236378e-15 1.232391e-34)	(1.864721e-03 2.236378e-15 1.232391e-34)
1.630000e+00	bottomWall	(1.904896e-03 2.676388e-15 1.501996e-34)	(1.904896e-03 2.676388e-15 1.501996e-34)
1.640000e+00	bottomWall	(1.945399e-03 5.363899e-16 2.784332e-35)	(1.945399e-03 5.363899e-16 2.784332e-35)
1.650000e+00	bottomWall	(1.986227e-03 -4.453707e-16 -2.696948e-35)	(1.986227e-03 -4.453707e-16 -2.696948e-35)
1.660000e+00	bottomWall	(2.027375e-03 2.337657e-16 1.332084e-35)	(2.027375e-03 2.337657e-16 1.332084e-35)
1.670000e+00	bottomWall	(2.068839e-03 5.896206e-16 3.339193e-35)	(2.068839e-03 5.896206e-16 3.339193e-35)
1.680000e+00	bottomWall	(2.110615e-03 1.062461e-15 6.422338e-35)	(2.110615e-03 1.062461e-15 6.422338e-35)
1.690000e+00	bottomWall	(2.152696e-03 1.290342e-15 7.767011e-35)	(2.152696e-03 1.290342e-15 7.767011e-35)
1.700000e+00	bottomWall	(2.195077e-03 4.176200e-16 2.500756e-35)	(2.195077e-03 4.176200e-16 2.500756e-35)
1.710000e+00	bottomWall	(2.237751e-03 7.116729e-16 4.332191e-35)	(2.237751e-03 7.116729e-16 4.332191e-35)
1.720000e+00	bottomWall	(2.280712e-03 8.426808e-16 5.266257e-35)	(2.280712e-03 8.426808e-16 5.266257e-35)
1.730000e+00	bottomWall	(2.323952e-03 6.795201e-16 4.308140e-35)	(2.323952e-03 6.795201e-16 4.308140e-35)
1.740000e+00	bottomWall	(2.367464e-03 6.763165e-16 4.297469e-35)	(2.367464e-03 6.763165e-16 4.297469e-35)
1.750000e+00	bottomWall	(2.411241e-03 6.463955e-16 4.217651e-35)	(2.411241e-03 6.463955e-16 4.217651e-35)
1.760000e+00	bottomWall	(2.455273e-03 7.043194e-16 4.566485e-35)	(2.455273e-03 7.043194e-16 4.566485e-35)
1.770000e+00	bottomWall	(2.499553e-03 7.091909e-16 4.688570e-35)	(2.499553e-03 7.091909e-16 4.688570e-35)
1.780000e+00	bottomWall	(2.544073e-03 8.028107e-16 5.419417e-35)	(2.544073e-03 8.028107e-16 5.419417e-35)
1.790000e+00	bottomWall	(2.588823e-03 7.023309e-16 4.780407e-35)	(2.588823e-03 7.023309e-16 4.780407e-35)
1.800000e+00	bottomWall	(2.633794e-03 4.240587e-16 2.945738e-35)	(2.633794e-03 4.240587e-16 2.945738e-35)
1.810000e+00	bottomWall	(2.678979e-03 1.172003e-15 8.259633e-35)	(2.678979e-03 1.172003e-15 8.259633e-35)
1.820000e+00	bottomWall	(2.724367e-03 8.882066e-16 6.156961e-35)	(2.724367e-03 8.882066e-16 6.156961e-35)
1.830000e+00	bottomWall	(2.769949e-03 5.396955e-16 3.991352e-35)	(2.769949e-03 5.396955e-16 3.991352e-35)
1.840000e+00	bottomWall	(2.815715e-03 2.299236e-16 1.637088e-35)	(2.815715e-03 2.299236e-16 1.637088e-35)
1.850000e+00	bottomWall	(2.861657e-03 -5.318488e-16 -3.846862e-35)	(2.861657e-03 -5.318488e-16 -3.846862e-35)
1.860000e+00	bottomWall	(2.907765e-03 3.857042e-16 2.900170e-35)	(2.907765e-03 3.857042e-16 2.900170e-35)
1.870000e+00	bottomWall	(2.954028e-03 2.602471e-15 1.959676e-34)	(2.954028e-03 2.602471e-15 1.959676e-34)
1.880000e+00	bottomWall	(3.000437e-03 2.115385e-15 1.624997e-34)	(3.000437e-03 2.115385e-15 1.624997e-34)
1.890000e+00	bottomWall	(3.046982e-03 1.547127e-15 1.215413e-34)	(3.046982e-03 1.547127e-15 1.215413e-34)
1.900000e+00	bottomWall	(3.093654e-03 2.100647e-16 1.763614e-35)	(3.093654e-03 2.100647e-16 1.763614e-35)
1.910000e+00	bottomWall	(3.140442e-03 1.432179e-16 5.501280e-36)	(3.140442e-03 1.432179e-16 5.501280e-36)
1.920000e+00	bottomWall	(3.187336e-03 1.074913e-15 8.583481e-35)	(3.187336e-03 1.074913e-15 8.583481e-35)
1.930000e+00	bottomWall	(3.234326e-03 -1.007191e-15 -8.463111e-35)	(3.234326e-03 -1.007191e-15 -8.463111e-35)
1.940000e+00	bottomWall	(3.281403e-03 -2.938895e-15 -2.455742e-34)	(3.281403e-03 -2.938895e-15 -2.455742e-34)
1.950000e+00	bottomWall	(3.328555e-03 -3.737550e-15 -3.108367e-34)	(3.328555e-03 -3.737550e-15 -3.108367e-34)
1.960000e+00	bottomWall	(3.375772e-03 -3.222203e-15 -2.729531e-34)	(3.375772e-03 -3.222203e-15 -2.729531e-34)
1.970000e+00	bottomWall	(3.423046e-03 -2.902593e-16 -2.447687e-35)	(3.423046e-03 -2.902593e-16 -2.447687e-35)
1.980000e+00	bottomWall	(3.470364e-03 3.944963e-15 3.418997e-34)	(3.470364e-03 3.944963e-15 3.418997e-34)
1.990000e+00	bottomWall	(3.517717e-03 7.970655e-15 7.021225e-34)	(3.517717e-03 7.970655e-15 7.021225e-34)
2.000000e+00	bottomWall	(3.565095e-03 8.259590e-15 7.400742e-34)	(3.565095e-03 8.259590e-15 7.400742e-34)
2.010000e+00	bottomWall	(3.612487e-03 6.178792e-15 5.610690e-34)	(3.612487e-03 6.178792e-15 5.610690e-34)
2.020000e+00	bottomWall	(3.659883e-03 4.764983e-15 4.340695e-34)	(3.659883e-03 4.764983e-15 4.340695e-34)
2.030000e+00	bottomWall	(3.707273e-03 3.739662e-15 3.475004e-34)	(3.707273e-03 3.739662e-15 3.475004e-34)
2.040000e+00	bottomWall	(3.754647e-03 2.075769e-15 1.956744e-34)	(3.754647e-03 2.075769e-15 1.956744e-34)
2.050000e+00	bottomWall	(3.801993e-03 -1.531194e-15 -1.440408e-34)	(3.801993e-03 -1.531194e-15 -1.440408e-34)
2.060000e+00	bottomWall	(3.849302e-03 -1.133797e-15 -1.066872e-34)	(3.849302e-03 -1.133797e-15 -1.066872e-34)
2.070000e+00	bottomWall	(3.896564e-03 -1.527972e-15 -1.473199e-34)	(3.896564e-03 -1.527972e-15 -1.473199e-34)
2.080000e+00	bottomWall	(3.943768e-03 -1.084710e-15 -1.005618e-34)	(3.943768e-03 -1.084710e-15 -1.005618e-34)
2.090000e+00	bottomWall	(3.990903e-03 1.838616e-15 1.807577e-34)	(3.990903e-03 1.838616e-15 1.807577e-34)
2.100000e+00	bottomWall	(4.037960e-03 8.232261e-16 8.298386e-35)	(4.037960e-03 8.232261e-16 8.298386e-35)
2.110000e+00	bottomWall	(4.084928e-03 -3.781567e-15 -3.875239e-34)	(4.084928e-03 -3.781567e-15 -3.875239e-34)
2.120000e+00	bottomWall	(4.131797e-03 -7.611871e-15 -7.913917e-34)	(4.131797e-03 -7.611871e-15 -7.913917e-34)
2.130000e+00	bottomWall	(4.178556e-03 -1.078021e-14 -1.125520e-33)	(4.178556e-03 -1.078021e-14 -1.125520e-33)
2.140000e+00	bottomWall	(4.225196e-03 -1.349492e-14 -1.427461e-33)	(4.225196e-03 -1.349492e-14 -1.427461e-33)
2.150000e+00	bottomWall	(4.271705e-03 -1.496216e-14 -1.606901e-33)	(4.271705e-03 -1.496216e-14 -1.606901e-33)
2.160000e+00	bottomWall	(4.318075e-03 -1.316547e-14 -1.433681e-33)	(4.318075e-03 -1.316547e-14 -1.433681e-33)
2.170000e+00	bottomWall	(4.364294e-03 -1.193723e-14 -1.310958e-33)	(4.364294e-03 -1.193723e-14 -1.310958e-33)
2.180000e+00	bottomWall	(4.410352e-03 -1.036636e-14 -1.149848e-33)	(4.410352e-03 -1.036636e-14 -1.149848e-33)
2.190000e+00	bottomWall	(4.456239e-03 -5.313286e-15 -6.021325e-34)	(4.456239e-03 -5.313286e-15 -6.021325e-34)
2.200000e+00	bottomWall	(4.501945e-03 3.229359e-15 3.643029e-34)	(4.501945e-03 3.229359e-15 3.643029e-34)
2.210000e+00	bottomWall	(4.547460e-03 1.091181e-14 1.246336e-33)	(4.547460e-03 1.091181e-14 1.246336e-33)
2.220000e+00	bottomWall	(4.592774e-03 1.756140e-14 2.045675e-33)	(4.592774e-03 1.756140e-14 2.045675e-33)
2.230000e+00	bottomWall	(4.637877e-03 2.315171e-14 2.718627e-33)	(4.637877e-03 2.315171e-14 2.718627e-33)
2.240000e+00	bottomWall	(4.682758e-03 2.825871e-14 3.355831e-33)	(4.682758e-03 2.825871e-14 3.355831e-33)
2.250000e+00	bottomWall	(4.727407e-03 3.076001e-14 3.690444e-33)	(4.727407e-03 3.076001e-14 3.690444e-33)
2.260000e+00	bottomWall	(4.771815e-03 2.629322e-14 3.185658e-33)	(4.771815e-03 2.629322e-14 3.185658e-33)
2.270000e+00	bottomWall	(4.815972e-03 2.015952e-14 2.477677e-33)	(4.815972e-03 2.015952e-14 2.477677e-33)
2.280000e+00	bottomWall	(4.859867e-03 1.467004e-14 1.823047e-33)	(4.859867e-03 1.467004e-14 1.823047e-33)
2.290000e+00	bottomWall	(4.903492e-03 1.050260e-14 1.313767e-33)	(4.903492e-03 1.050260e-14 1.313767e-33)
2.300000e+00	bottomWall	(4.946835e-03 6.679422e-15 8.421152e-34)	(4.946835e-03 6.679422e-15 8.421152e-34)
2.310000e+00	bottomWall	(4.989887e-03 3.673516e-15 4.747319e-34)	(4.989887e-03 3.673516e-15 4.747319e-34)
2.320000e+00	bottomWall	(5.032639e-03 1.086223e-15 1.304713e-34)	(5.032639e-03 1.086223e-15 1.304713e-34)
2.330000e+00	bottomWall	(5.075081e-03 4.999572e-16 6.854590e-35)	(5.075081e-03 4.999572e-16 6.854590e-35)
2.340000e+00	bottomWall	(5.117202e-03 -2.793757e-16 -3.426951e-35)	(5.117202e-03 -2.793757e-16 -3.426951e-35)
2.350000e+00	bottomWall	(5.158994e-03 -4.855989e-15 -6.572696e-34)	(5.158994e-03 -4.855989e-15 -6.572696e-34)
2.360000e+00	bottomWall	(5.200447e-03 -1.088938e-14 -1.460603e-33)	(5.200447e-03 -1.088938e-14 -1.460603e-33)
2.370000e+00	bottomWall	(5.241552e-03 -1.520062e-14 -2.058904e-33)	(5.241552e-03 -1.520062e-14 -2.058904e-33)
2.380000e+00	bottomWall	(5.282298e-03 -1.687371e-14 -2.302168e-33)	(5.282298e-03 -1.687371e-14 -2.302168e-33)
2.390000e+00	bottomWall	(5.322676e-03 -1.300608e-14 -1.805148e-33)	(5.322676e-03 -1.300608e-14 -1.805148e-33)
2.400000e+00	bottomWall	(5.362678e-03 -1.071494e-14 -1.502930e-33)	(5.362678e-03 -1.071494e-14 -1.502930e-33)
2.410000e+00	bottomWall	(5.402294e-03 -9.668602e-15 -1.359693e-33)	(5.402294e-03 -9.668602e-15 -1.359693e-33)
2.420000e+00	bottomWall	(5.441514e-03 -8.913367e-15 -1.264498e-33)	(5.441514e-03 -8.913367e-15 -1.264498e-33)
2.430000e+00	bottomWall	(5.480330e-03 -8.343426e-15 -1.185891e-33)	(5.480330e-03 -8.343426e-15 -1.185891e-33)
2.440000e+00	bottomWall	(5.518732e-03 -7.741446e-15 -1.112983e-33)	(5.518732e-03 -7.741446e-15 -1.112983e-33)
2.450000e+00	bottomWall	(5.556712e-03 -1.660361e-15 -2.375953e-34)	(5.556712e-03 -1.660361e-15 -2.375953e-34)
2.460000e+00	bottomWall	(5.594259e-03 4.256490e-15 6.287196e-34)	(5.594259e-03 4.256490e-15 6.287196e-34)
2.470000e+00	bottomWall	(5.631367e-03 8.864824e-15 1.306895e-33)	(5.631367e-03 8.864824e-15 1.306895e-33)
2.480000e+00	bottomWall	(5.668025e-03 1.285885e-14 1.915578e-33)	(5.668025e-03 1.285885e-14 1.915578e-33)
2.490000e+00	bottomWall	(5.704224e-03 1.755689e-15 2.602879e-34)	(5.704224e-03 1.755689e-15 2.602879e-34)
2.500000e+00	bottomWall	(5.739957e-03 -8.219622e-15 -1.240256e-33)	(5.739957e-03 -8.219622e-15 -1.240256e-33)
2.510000e+00	bottomWall	(5.775215e-03 -1.601654e-14 -2.447247e-33)	(5.775215e-03 -1.601654e-14 -2.447247e-33)
2.520000e+00	bottomWall	(5.809988e-03 -2.011878e-14 -3.101940e-33)	(5.809988e-03 -2.011878e-14 -3.101940e-33)
2.530000e+00	bottomWall	(5.844269e-03 -2.366068e-14 -3.697814e-33)	(5.844269e-03 -2.366068e-14 -3.697814e-33)
2.540000e+00	bottomWall	(5.878049e-03 -2.710066e-14 -4.255769e-33)	(5.878049e-03 -2.710066e-14 -4.255769e-33)
2.550000e+00	bottomWall	(5.911320e-03 -2.904123e-14 -4.585109e-33)	(5.911320e-03 -2.904123e-14 -4.585109e-33)
2.560000e+00	bottomWall	(5.944074e-03 -3.085437e-14 -4.916472e-33)	(5.944074e-03 -3.085437e-14 -4.916472e-33)
2.570000e+00	bottomWall	(5.976302e-03 -3.125613e-14 -5.005372e-33)	(5.976302e-03 -3.125613e-14 -5.005372e-33)
2.580000e+00	bottomWall	(6.007997e-03 -3.275795e-14 -5.297557e-33)	(6.007997e-03 -3.275795e-14 -5.297557e-33)
2.590000e+00	bottomWall	(6.039150e-03 -3.350640e-14 -5.456539e-33)	(6.039150e-03 -3.350640e-14 -5.456539e-33)
2.600000e+00	bottomWall	(6.069755e-03 -3.453730e-14 -5.670607e-33)	(6.069755e-03 -3.453730e-14 -5.670607e-33)
2.610000e+00	bottomWall	(6.099802e-03 -3.485011e-14 -5.773406e-33)	(6.099802e-03 -3.485011e-14 -5.773406e-33)
2.620000e+00	bottomWall	(6.129284e-03 -2.800226e-14 -4.666824e-33)	(6.129284e-03 -2.800226e-14 -4.666824e-33)
2.630000e+00	bottomWall	(6.158194e-03 -2.242056e-14 -3.766664e-33)	(6.158194e-03 -2.242056e-14 -3.766664e-33)
2.640000e+00	bottomWall	(6.186524e-03 -1.800057e-14 -3.037093e-33)	(6.186524e-03 -1.800057e-14 -3.037093e-33)
2.650000e+00	bottomWall	(6.214267e-03 -1.441002e-14 -2.439977e-33)	(6.214267e-03 -1.441002e-14 -2.439977e-33)
2.660000e+00	bottomWall	(6.241416e-03 -1.207296e-14 -2.072590e-33)	(6.241416e-03 -1.207296e-14 -2.072590e-33)
2.670000e+00	bottomWall	(6.267963e-03 -1.008665e-14 -1.754934e-33)	(6.267963e-03 -1.008665e-14 -1.754934e-33)
2.680000e+00	bottomWall	(6.293901e-03 -8.268747e-15 -1.436164e-33)	(6.293901e-03 -8.268747e-15 -1.436164e-33)
2.690000e+00	bottomWall	(6.319224e-03 -6.895423e-15 -1.212767e-33)	(6.319224e-03 -6.895423e-15 -1.212767e-33)
2.700000e+00	bottomWall	(6.343924e-03 -5.164243e-15 -9.195400e-34)	(6.343924e-03 -5.164243e-15 -9.195400e-34)
2.710000e+00	bottomWall	(6.367995e-03 -3.479809e-15 -6.300694e-34)	(6.367995e-03 -3.479809e-15 -6.300694e-34)
2.720000e+00	bottomWall	(6.391430e-03 5.461011e-15 9.579014e-34)	(6.391430e-03 5.461011e-15 9.579014e-34)
2.730000e+00	bottomWall	(6.414222e-03 2.004738e-14 3.585313e-33)	(6.414222e-03 2.004738e-14 3.585313e-33)
2.740000e+00	bottomWall	(6.436366e-03 3.031099e-14 5.460552e-33)	(6.436366e-03 3.031099e-14 5.460552e-33)
2.750000e+00	bottomWall	(6.457854e-03 3.838171e-14 6.941425e-33)	(6.457854e-03 3.838171e-14 6.941425e-33)
2.760000e+00	bottomWall	(6.478681e-03 4.453178e-14 8.133777e-33)	(6.478681e-03 4.453178e-14 8.133777e-33)