# y+ ()       
# Time        	patch         	min           	max           	average       
0.01          	bottomWall	3.418374e-01	3.418391e-01	3.418383e-01
0.02          	bottomWall	3.132936e-01	3.132940e-01	3.132938e-01
0.03          	bottomWall	3.489016e-01	3.489022e-01	3.489019e-01
0.04          	bottomWall	3.168316e-01	3.168318e-01	3.168317e-01
0.05          	bottomWall	3.090627e-01	3.090628e-01	3.090628e-01
0.06          	bottomWall	2.989279e-01	2.989280e-01	2.989280e-01
0.07          	bottomWall	2.918037e-01	2.918038e-01	2.918037e-01
0.08          	bottomWall	2.855515e-01	2.855515e-01	2.855515e-01
0.09          	bottomWall	2.802720e-01	2.802721e-01	2.802721e-01
0.1           	bottomWall	2.756490e-01	2.756490e-01	2.756490e-01
0.11          	bottomWall	2.715649e-01	2.715650e-01	2.715649e-01
0.12          	bottomWall	2.679076e-01	2.679076e-01	2.679076e-01
0.13          	bottomWall	2.646005e-01	2.646005e-01	2.646005e-01
0.14          	bottomWall	2.615832e-01	2.615832e-01	2.615832e-01
0.15          	bottomWall	2.588091e-01	2.588091e-01	2.588091e-01
0.16          	bottomWall	2.562411e-01	2.562412e-01	2.562412e-01
0.17          	bottomWall	2.538496e-01	2.538496e-01	2.538496e-01
0.18          	bottomWall	2.516102e-01	2.516102e-01	2.516102e-01
0.19          	bottomWall	2.495029e-01	2.495029e-01	2.495029e-01
0.2           	bottomWall	2.475110e-01	2.475110e-01	2.475110e-01
0.21          	bottomWall	2.456205e-01	2.456205e-01	2.456205e-01
0.22          	bottomWall	2.438196e-01	2.438196e-01	2.438196e-01
0.23          	bottomWall	2.420981e-01	2.420981e-01	2.420981e-01
0.24          	bottomWall	2.404474e-01	2.404474e-01	2.404474e-01
0.25          	bottomWall	2.388598e-01	2.388598e-01	2.388598e-01
0.26          	bottomWall	2.373289e-01	2.373289e-01	2.373289e-01
0.27          	bottomWall	2.358489e-01	2.358489e-01	2.358489e-01
0.28          	bottomWall	2.344147e-01	2.344147e-01	2.344147e-01
0.29          	bottomWall	2.330219e-01	2.330220e-01	2.330219e-01
0.3           	bottomWall	2.316667e-01	2.316667e-01	2.316667e-01
0.31          	bottomWall	2.303453e-01	2.303453e-01	2.303453e-01
0.32          	bottomWall	2.290548e-01	2.290548e-01	2.290548e-01
0.33          	bottomWall	2.277922e-01	2.277922e-01	2.277922e-01
0.34          	bottomWall	2.265551e-01	2.265551e-01	2.265551e-01
0.35          	bottomWall	2.253411e-01	2.253412e-01	2.253412e-01
0.36          	bottomWall	2.241483e-01	2.241483e-01	2.241483e-01
0.37          	bottomWall	2.229747e-01	2.229747e-01	2.229747e-01
0.38          	bottomWall	2.218185e-01	2.218185e-01	2.218185e-01
0.39          	bottomWall	2.206784e-01	2.206784e-01	2.206784e-01
0.4           	bottomWall	2.195527e-01	2.195527e-01	2.195527e-01
0.41          	bottomWall	2.184403e-01	2.184403e-01	2.184403e-01
0.42          	bottomWall	2.173398e-01	2.173398e-01	2.173398e-01
0.43          	bottomWall	2.162503e-01	2.162503e-01	2.162503e-01
0.44          	bottomWall	2.151707e-01	2.151707e-01	2.151707e-01
0.45          	bottomWall	2.141001e-01	2.141001e-01	2.141001e-01
0.46          	bottomWall	2.130375e-01	2.130375e-01	2.130375e-01
0.47          	bottomWall	2.119823e-01	2.119823e-01	2.119823e-01
0.48          	bottomWall	2.109336e-01	2.109336e-01	2.109336e-01
0.49          	bottomWall	2.098907e-01	2.098907e-01	2.098907e-01
0.5           	bottomWall	2.088531e-01	2.088531e-01	2.088531e-01
0.51          	bottomWall	2.078201e-01	2.078201e-01	2.078201e-01
0.52          	bottomWall	2.067911e-01	2.067911e-01	2.067911e-01
0.53          	bottomWall	2.057657e-01	2.057657e-01	2.057657e-01
0.54          	bottomWall	2.047433e-01	2.047434e-01	2.047433e-01
0.55          	bottomWall	2.037236e-01	2.037236e-01	2.037236e-01
0.56          	bottomWall	2.027060e-01	2.027060e-01	2.027060e-01
0.57          	bottomWall	2.016902e-01	2.016902e-01	2.016902e-01
0.58          	bottomWall	2.006758e-01	2.006758e-01	2.006758e-01
0.59          	bottomWall	1.996624e-01	1.996624e-01	1.996624e-01
0.6           	bottomWall	1.986498e-01	1.986498e-01	1.986498e-01
0.61          	bottomWall	1.976375e-01	1.976375e-01	1.976375e-01
0.62          	bottomWall	1.966254e-01	1.966254e-01	1.966254e-01
0.63          	bottomWall	1.956131e-01	1.956131e-01	1.956131e-01
0.64          	bottomWall	1.946005e-01	1.946005e-01	1.946005e-01
0.65          	bottomWall	1.935871e-01	1.935871e-01	1.935871e-01
0.66          	bottomWall	1.925729e-01	1.925729e-01	1.925729e-01
0.67          	bottomWall	1.915575e-01	1.915575e-01	1.915575e-01
0.68          	bottomWall	1.905409e-01	1.905409e-01	1.905409e-01
0.69          	bottomWall	1.895227e-01	1.895227e-01	1.895227e-01
0.7           	bottomWall	1.885029e-01	1.885029e-01	1.885029e-01
0.71          	bottomWall	1.874812e-01	1.874812e-01	1.874812e-01
0.72          	bottomWall	1.864575e-01	1.864575e-01	1.864575e-01
0.73          	bottomWall	1.854316e-01	1.854316e-01	1.854316e-01
0.74          	bottomWall	1.844034e-01	1.844034e-01	1.844034e-01
0.75          	bottomWall	1.833727e-01	1.833727e-01	1.833727e-01
0.76          	bottomWall	1.823394e-01	1.823394e-01	1.823394e-01
0.77          	bottomWall	1.813035e-01	1.813035e-01	1.813035e-01
0.78          	bottomWall	1.802647e-01	1.802647e-01	1.802647e-01
0.79          	bottomWall	1.792229e-01	1.792229e-01	1.792229e-01
0.8           	bottomWall	1.781781e-01	1.781781e-01	1.781781e-01
0.81          	bottomWall	1.771302e-01	1.771302e-01	1.771302e-01
0.82          	bottomWall	1.760790e-01	1.760791e-01	1.760790e-01
0.83          	bottomWall	1.750246e-01	1.750246e-01	1.750246e-01
0.84          	bottomWall	1.739667e-01	1.739667e-01	1.739667e-01
0.85          	bottomWall	1.729053e-01	1.729053e-01	1.729053e-01
0.86          	bottomWall	1.718403e-01	1.718404e-01	1.718403e-01
0.87          	bottomWall	1.707718e-01	1.707718e-01	1.707718e-01
0.88          	bottomWall	1.696995e-01	1.696995e-01	1.696995e-01
0.89          	bottomWall	1.686235e-01	1.686235e-01	1.686235e-01
0.9           	bottomWall	1.675436e-01	1.675436e-01	1.675436e-01
0.91          	bottomWall	1.664599e-01	1.664599e-01	1.664599e-01
0.92          	bottomWall	1.653722e-01	1.653722e-01	1.653722e-01
0.93          	bottomWall	1.642806e-01	1.642806e-01	1.642806e-01
0.94          	bottomWall	1.631849e-01	1.631849e-01	1.631849e-01
0.95          	bottomWall	1.620852e-01	1.620852e-01	1.620852e-01
0.96          	bottomWall	1.609814e-01	1.609814e-01	1.609814e-01
0.97          	bottomWall	1.598734e-01	1.598734e-01	1.598734e-01
0.98          	bottomWall	1.587612e-01	1.587612e-01	1.587612e-01
0.99          	bottomWall	1.576448e-01	1.576448e-01	1.576448e-01
1             	bottomWall	1.565242e-01	1.565242e-01	1.565242e-01
1.01          	bottomWall	1.553992e-01	1.553992e-01	1.553992e-01
1.02          	bottomWall	1.542700e-01	1.542700e-01	1.542700e-01
1.03          	bottomWall	1.531364e-01	1.531364e-01	1.531364e-01
1.04          	bottomWall	1.519985e-01	1.519985e-01	1.519985e-01
1.05          	bottomWall	1.508562e-01	1.508562e-01	1.508562e-01
1.06          	bottomWall	1.497095e-01	1.497095e-01	1.497095e-01
1.07          	bottomWall	1.485584e-01	1.485584e-01	1.485584e-01
1.08          	bottomWall	1.474028e-01	1.474029e-01	1.474029e-01
1.09          	bottomWall	1.462428e-01	1.462429e-01	1.462429e-01
1.1           	bottomWall	1.450784e-01	1.450784e-01	1.450784e-01
1.11          	bottomWall	1.439094e-01	1.439094e-01	1.439094e-01
1.12          	bottomWall	1.427360e-01	1.427360e-01	1.427360e-01
1.13          	bottomWall	1.415581e-01	1.415581e-01	1.415581e-01
1.14          	bottomWall	1.403756e-01	1.403756e-01	1.403756e-01
1.15          	bottomWall	1.391887e-01	1.391887e-01	1.391887e-01
1.16          	bottomWall	1.379972e-01	1.379972e-01	1.379972e-01
1.17          	bottomWall	1.368012e-01	1.368012e-01	1.368012e-01
1.18          	bottomWall	1.356006e-01	1.356007e-01	1.356007e-01
1.19          	bottomWall	1.343956e-01	1.343956e-01	1.343956e-01
1.2           	bottomWall	1.331859e-01	1.331859e-01	1.331859e-01
1.21          	bottomWall	1.319718e-01	1.319718e-01	1.319718e-01
1.22          	bottomWall	1.307530e-01	1.307531e-01	1.307530e-01
1.23          	bottomWall	1.295298e-01	1.295298e-01	1.295298e-01
1.24          	bottomWall	1.283019e-01	1.283019e-01	1.283019e-01
1.25          	bottomWall	1.270695e-01	1.270696e-01	1.270696e-01
1.26          	bottomWall	1.258326e-01	1.258326e-01	1.258326e-01
1.27          	bottomWall	1.245911e-01	1.245911e-01	1.245911e-01
1.28          	bottomWall	1.233450e-01	1.233451e-01	1.233450e-01
1.29          	bottomWall	1.220944e-01	1.220944e-01	1.220944e-01
1.3           	bottomWall	1.208392e-01	1.208393e-01	1.208393e-01
1.31          	bottomWall	1.195795e-01	1.195795e-01	1.195795e-01
1.32          	bottomWall	1.183152e-01	1.183152e-01	1.183152e-01
1.33          	bottomWall	1.170463e-01	1.170463e-01	1.170463e-01
1.34          	bottomWall	1.157729e-01	1.157729e-01	1.157729e-01
1.35          	bottomWall	1.144949e-01	1.144949e-01	1.144949e-01
1.36          	bottomWall	1.132123e-01	1.132123e-01	1.132123e-01
1.37          	bottomWall	1.119251e-01	1.119251e-01	1.119251e-01
1.38          	bottomWall	1.106334e-01	1.106334e-01	1.106334e-01
1.39          	bottomWall	1.093370e-01	1.093370e-01	1.093370e-01
1.4           	bottomWall	1.080361e-01	1.080361e-01	1.080361e-01
1.41          	bottomWall	1.067305e-01	1.067305e-01	1.067305e-01
1.42          	bottomWall	1.054203e-01	1.054203e-01	1.054203e-01
1.43          	bottomWall	1.041055e-01	1.041055e-01	1.041055e-01
1.44          	bottomWall	1.027860e-01	1.027860e-01	1.027860e-01
1.45          	bottomWall	1.014618e-01	1.014618e-01	1.014618e-01
1.46          	bottomWall	1.001329e-01	1.001329e-01	1.001329e-01
1.47          	bottomWall	9.879920e-02	9.879922e-02	9.879921e-02
1.48          	bottomWall	9.746076e-02	9.746078e-02	9.746077e-02
1.49          	bottomWall	9.611751e-02	9.611752e-02	9.611751e-02
1.5           	bottomWall	9.476939e-02	9.476940e-02	9.476939e-02
1.51          	bottomWall	9.341636e-02	9.341637e-02	9.341636e-02
1.52          	bottomWall	9.205834e-02	9.205836e-02	9.205835e-02
1.53          	bottomWall	9.069530e-02	9.069531e-02	9.069530e-02
1.54          	bottomWall	8.932712e-02	8.932714e-02	8.932713e-02
1.55          	bottomWall	8.795376e-02	8.795377e-02	8.795377e-02
1.56          	bottomWall	8.657510e-02	8.657511e-02	8.657510e-02
1.57          	bottomWall	8.519102e-02	8.519104e-02	8.519103e-02
1.58          	bottomWall	8.380143e-02	8.380145e-02	8.380144e-02
1.59          	bottomWall	8.240617e-02	8.240619e-02	8.240618e-02
1.6           	bottomWall	8.100506e-02	8.100510e-02	8.100509e-02
1.61          	bottomWall	7.959800e-02	7.959804e-02	7.959802e-02
1.62          	bottomWall	7.818475e-02	7.818478e-02	7.818476e-02
1.63          	bottomWall	7.676507e-02	7.676510e-02	7.676509e-02
1.64          	bottomWall	7.533873e-02	7.533877e-02	7.533876e-02
1.65          	bottomWall	7.390548e-02	7.390550e-02	7.390549e-02
1.66          	bottomWall	7.246498e-02	7.246499e-02	7.246498e-02
1.67          	bottomWall	7.101687e-02	7.101689e-02	7.101688e-02
1.68          	bottomWall	6.956078e-02	6.956079e-02	6.956078e-02
1.69          	bottomWall	6.809623e-02	6.809625e-02	6.809624e-02
1.7           	bottomWall	6.657215e-02	6.657218e-02	6.657217e-02
1.71          	bottomWall	6.491126e-02	6.491128e-02	6.491127e-02
1.72          	bottomWall	6.320918e-02	6.320919e-02	6.320918e-02
1.73          	bottomWall	6.148819e-02	6.148820e-02	6.148820e-02
1.74          	bottomWall	5.975646e-02	5.975647e-02	5.975647e-02
1.75          	bottomWall	5.801692e-02	5.801693e-02	5.801693e-02
1.76          	bottomWall	5.627010e-02	5.627011e-02	5.627011e-02
1.77          	bottomWall	5.451523e-02	5.451524e-02	5.451524e-02
1.78          	bottomWall	5.275074e-02	5.275075e-02	5.275075e-02
1.79          	bottomWall	5.097441e-02	5.097443e-02	5.097443e-02
1.8           	bottomWall	4.918352e-02	4.918354e-02	4.918353e-02
1.81          	bottomWall	4.737475e-02	4.737478e-02	4.737477e-02
1.82          	bottomWall	4.554420e-02	4.554426e-02	4.554424e-02
1.83          	bottomWall	4.368715e-02	4.368741e-02	4.368731e-02
1.84          	bottomWall	4.179840e-02	4.179883e-02	4.179853e-02
1.85          	bottomWall	3.987110e-02	3.987156e-02	3.987122e-02
1.86          	bottomWall	3.789718e-02	3.789762e-02	3.789731e-02
1.87          	bottomWall	3.586670e-02	3.586710e-02	3.586684e-02
1.88          	bottomWall	3.376706e-02	3.376743e-02	3.376722e-02
1.89          	bottomWall	3.158196e-02	3.158226e-02	3.158209e-02
1.9           	bottomWall	2.928951e-02	2.928973e-02	2.928961e-02
1.91          	bottomWall	2.685927e-02	2.685944e-02	2.685935e-02
1.92          	bottomWall	2.424662e-02	2.424673e-02	2.424667e-02
1.93          	bottomWall	2.138113e-02	2.138122e-02	2.138118e-02
1.94          	bottomWall	1.813922e-02	1.813929e-02	1.813925e-02
1.95          	bottomWall	1.426115e-02	1.426122e-02	1.426118e-02
1.96          	bottomWall	8.947141e-03	8.947228e-03	8.947188e-03
1.97          	bottomWall	6.411022e-03	6.411140e-03	6.411092e-03
1.98          	bottomWall	1.265797e-02	1.265802e-02	1.265800e-02
1.99          	bottomWall	1.665698e-02	1.665701e-02	1.665700e-02
2             	bottomWall	1.982241e-02	1.982244e-02	1.982242e-02
2.01          	bottomWall	2.251157e-02	2.251160e-02	2.251159e-02
2.02          	bottomWall	2.488182e-02	2.488184e-02	2.488183e-02
2.03          	bottomWall	2.701930e-02	2.701932e-02	2.701931e-02
2.04          	bottomWall	2.897735e-02	2.897737e-02	2.897736e-02
2.05          	bottomWall	3.079171e-02	3.079173e-02	3.079173e-02
2.06          	bottomWall	3.248774e-02	3.248776e-02	3.248775e-02
2.07          	bottomWall	3.408413e-02	3.408415e-02	3.408414e-02
2.08          	bottomWall	3.559513e-02	3.559515e-02	3.559515e-02
2.09          	bottomWall	3.703189e-02	3.703191e-02	3.703190e-02
2.1           	bottomWall	3.840329e-02	3.840332e-02	3.840331e-02
2.11          	bottomWall	3.971661e-02	3.971664e-02	3.971663e-02
2.12          	bottomWall	4.097790e-02	4.097793e-02	4.097792e-02
2.13          	bottomWall	4.219233e-02	4.219236e-02	4.219235e-02
2.14          	bottomWall	4.336440e-02	4.336444e-02	4.336442e-02
2.15          	bottomWall	4.449818e-02	4.449822e-02	4.449820e-02
2.16          	bottomWall	4.559740e-02	4.559745e-02	4.559743e-02
2.17          	bottomWall	4.666562e-02	4.666567e-02	4.666565e-02
2.18          	bottomWall	4.770628e-02	4.770633e-02	4.770631e-02
2.19          	bottomWall	4.872279e-02	4.872284e-02	4.872282e-02
2.2           	bottomWall	4.971858e-02	4.971863e-02	4.971861e-02
2.21          	bottomWall	5.069715e-02	5.069720e-02	5.069718e-02
2.22          	bottomWall	5.166212e-02	5.166217e-02	5.166214e-02
2.23          	bottomWall	5.261722e-02	5.261726e-02	5.261724e-02
2.24          	bottomWall	5.356633e-02	5.356636e-02	5.356635e-02
2.25          	bottomWall	5.451350e-02	5.451353e-02	5.451352e-02
2.26          	bottomWall	5.546293e-02	5.546296e-02	5.546295e-02
2.27          	bottomWall	5.641896e-02	5.641898e-02	5.641897e-02
2.28          	bottomWall	5.738603e-02	5.738604e-02	5.738604e-02
2.29          	bottomWall	5.836865e-02	5.836868e-02	5.836867e-02
2.3           	bottomWall	5.937136e-02	5.937139e-02	5.937138e-02
2.31          	bottomWall	6.039855e-02	6.039861e-02	6.039859e-02
2.32          	bottomWall	6.145436e-02	6.145454e-02	6.145448e-02
2.33          	bottomWall	6.254308e-02	6.254341e-02	6.254323e-02
2.34          	bottomWall	6.366795e-02	6.366826e-02	6.366808e-02
2.35          	bottomWall	6.483175e-02	6.483198e-02	6.483186e-02
2.36          	bottomWall	6.603665e-02	6.603682e-02	6.603675e-02
2.37          	bottomWall	6.728402e-02	6.728414e-02	6.728410e-02
2.38          	bottomWall	6.857438e-02	6.857444e-02	6.857442e-02
2.39          	bottomWall	6.990489e-02	6.990493e-02	6.990491e-02
2.4           	bottomWall	7.119108e-02	7.119114e-02	7.119110e-02
2.41          	bottomWall	7.246821e-02	7.246826e-02	7.246824e-02
2.42          	bottomWall	7.374277e-02	7.374280e-02	7.374279e-02
2.43          	bottomWall	7.501702e-02	7.501704e-02	7.501703e-02
2.44          	bottomWall	7.629168e-02	7.629171e-02	7.629170e-02
2.45          	bottomWall	7.756688e-02	7.756690e-02	7.756690e-02
2.46          	bottomWall	7.884236e-02	7.884239e-02	7.884238e-02
2.47          	bottomWall	8.011774e-02	8.011777e-02	8.011776e-02
2.48          	bottomWall	8.139258e-02	8.139260e-02	8.139259e-02
2.49          	bottomWall	8.266640e-02	8.266642e-02	8.266641e-02
2.5           	bottomWall	8.393875e-02	8.393878e-02	8.393877e-02
2.51          	bottomWall	8.520924e-02	8.520926e-02	8.520925e-02
2.52          	bottomWall	8.647748e-02	8.647750e-02	8.647749e-02
2.53          	bottomWall	8.774314e-02	8.774316e-02	8.774315e-02
2.54          	bottomWall	8.900593e-02	8.900595e-02	8.900594e-02
2.55          	bottomWall	9.026561e-02	9.026563e-02	9.026562e-02
2.56          	bottomWall	9.152196e-02	9.152198e-02	9.152197e-02
2.57          	bottomWall	9.277480e-02	9.277482e-02	9.277481e-02
2.58          	bottomWall	9.402398e-02	9.402400e-02	9.402399e-02
2.59          	bottomWall	9.526936e-02	9.526938e-02	9.526937e-02
2.6           	bottomWall	9.651083e-02	9.651086e-02	9.651085e-02
2.61          	bottomWall	9.774831e-02	9.774833e-02	9.774832e-02
2.62          	bottomWall	9.898170e-02	9.898172e-02	9.898171e-02
2.63          	bottomWall	1.002109e-01	1.002110e-01	1.002110e-01
2.64          	bottomWall	1.014360e-01	1.014360e-01	1.014360e-01
2.65          	bottomWall	1.026567e-01	1.026568e-01	1.026567e-01
2.66          	bottomWall	1.038732e-01	1.038732e-01	1.038732e-01
2.67          	bottomWall	1.050853e-01	1.050853e-01	1.050853e-01
2.68          	bottomWall	1.062930e-01	1.062930e-01	1.062930e-01
2.69          	bottomWall	1.074963e-01	1.074963e-01	1.074963e-01
2.7           	bottomWall	1.086951e-01	1.086951e-01	1.086951e-01
2.71          	bottomWall	1.098894e-01	1.098894e-01	1.098894e-01
2.72          	bottomWall	1.110792e-01	1.110793e-01	1.110792e-01
2.73          	bottomWall	1.122645e-01	1.122645e-01	1.122645e-01
2.74          	bottomWall	1.134452e-01	1.134452e-01	1.134452e-01
2.75          	bottomWall	1.146213e-01	1.146213e-01	1.146213e-01
2.76          	bottomWall	1.157928e-01	1.157928e-01	1.157928e-01
2.77          	bottomWall	1.169597e-01	1.169597e-01	1.169597e-01
2.78          	bottomWall	1.181218e-01	1.181219e-01	1.181219e-01
2.79          	bottomWall	1.192793e-01	1.192793e-01	1.192793e-01
2.8           	bottomWall	1.204321e-01	1.204321e-01	1.204321e-01
2.81          	bottomWall	1.215801e-01	1.215801e-01	1.215801e-01
2.82          	bottomWall	1.227234e-01	1.227234e-01	1.227234e-01
2.83          	bottomWall	1.238619e-01	1.238619e-01	1.238619e-01
2.84          	bottomWall	1.249955e-01	1.249955e-01	1.249955e-01
2.85          	bottomWall	1.261243e-01	1.261244e-01	1.261244e-01
2.86          	bottomWall	1.272483e-01	1.272483e-01	1.272483e-01
2.87          	bottomWall	1.283674e-01	1.283674e-01	1.283674e-01
2.88          	bottomWall	1.294815e-01	1.294815e-01	1.294815e-01
2.89          	bottomWall	1.305907e-01	1.305907e-01	1.305907e-01
2.9           	bottomWall	1.316950e-01	1.316950e-01	1.316950e-01
2.91          	bottomWall	1.327942e-01	1.327943e-01	1.327942e-01
2.92          	bottomWall	1.338885e-01	1.338885e-01	1.338885e-01
2.93          	bottomWall	1.349777e-01	1.349777e-01	1.349777e-01
2.94          	bottomWall	1.360618e-01	1.360618e-01	1.360618e-01
2.95          	bottomWall	1.371408e-01	1.371409e-01	1.371408e-01
2.96          	bottomWall	1.382147e-01	1.382148e-01	1.382148e-01
2.97          	bottomWall	1.392835e-01	1.392835e-01	1.392835e-01
2.98          	bottomWall	1.403471e-01	1.403471e-01	1.403471e-01
2.99          	bottomWall	1.414055e-01	1.414055e-01	1.414055e-01
3             	bottomWall	1.424586e-01	1.424586e-01	1.424586e-01
3.01          	bottomWall	1.435065e-01	1.435065e-01	1.435065e-01
3.02          	bottomWall	1.445491e-01	1.445491e-01	1.445491e-01
3.03          	bottomWall	1.455864e-01	1.455864e-01	1.455864e-01
3.04          	bottomWall	1.466184e-01	1.466184e-01	1.466184e-01
3.05          	bottomWall	1.476450e-01	1.476450e-01	1.476450e-01
3.06          	bottomWall	1.486662e-01	1.486662e-01	1.486662e-01
3.07          	bottomWall	1.496820e-01	1.496820e-01	1.496820e-01
3.08          	bottomWall	1.506923e-01	1.506923e-01	1.506923e-01
3.09          	bottomWall	1.516971e-01	1.516971e-01	1.516971e-01
3.1           	bottomWall	1.526965e-01	1.526965e-01	1.526965e-01
3.11          	bottomWall	1.536903e-01	1.536903e-01	1.536903e-01
3.12          	bottomWall	1.546785e-01	1.546785e-01	1.546785e-01
3.13          	bottomWall	1.556612e-01	1.556612e-01	1.556612e-01
3.14          	bottomWall	1.566382e-01	1.566382e-01	1.566382e-01
3.15          	bottomWall	1.576096e-01	1.576096e-01	1.576096e-01
3.16          	bottomWall	1.585754e-01	1.585754e-01	1.585754e-01
3.17          	bottomWall	1.595354e-01	1.595354e-01	1.595354e-01
3.18          	bottomWall	1.604897e-01	1.604897e-01	1.604897e-01
3.19          	bottomWall	1.614382e-01	1.614382e-01	1.614382e-01
3.2           	bottomWall	1.623810e-01	1.623810e-01	1.623810e-01
3.21          	bottomWall	1.633179e-01	1.633179e-01	1.633179e-01
3.22          	bottomWall	1.642490e-01	1.642491e-01	1.642491e-01
3.23          	bottomWall	1.651743e-01	1.651743e-01	1.651743e-01
3.24          	bottomWall	1.660936e-01	1.660936e-01	1.660936e-01
3.25          	bottomWall	1.670071e-01	1.670071e-01	1.670071e-01
3.26          	bottomWall	1.679145e-01	1.679146e-01	1.679146e-01
3.27          	bottomWall	1.688161e-01	1.688161e-01	1.688161e-01
3.28          	bottomWall	1.697116e-01	1.697116e-01	1.697116e-01
3.29          	bottomWall	1.706010e-01	1.706010e-01	1.706010e-01
3.3           	bottomWall	1.714844e-01	1.714845e-01	1.714844e-01
3.31          	bottomWall	1.723618e-01	1.723618e-01	1.723618e-01
3.32          	bottomWall	1.732330e-01	1.732330e-01	1.732330e-01
3.33          	bottomWall	1.740981e-01	1.740981e-01	1.740981e-01
3.34          	bottomWall	1.749570e-01	1.749570e-01	1.749570e-01
3.35          	bottomWall	1.758097e-01	1.758097e-01	1.758097e-01
3.36          	bottomWall	1.766562e-01	1.766562e-01	1.766562e-01
3.37          	bottomWall	1.774965e-01	1.774965e-01	1.774965e-01
3.38          	bottomWall	1.783305e-01	1.783305e-01	1.783305e-01
3.39          	bottomWall	1.791582e-01	1.791582e-01	1.791582e-01
3.4           	bottomWall	1.799795e-01	1.799796e-01	1.799795e-01
3.41          	bottomWall	1.807946e-01	1.807946e-01	1.807946e-01
3.42          	bottomWall	1.816032e-01	1.816032e-01	1.816032e-01
3.43          	bottomWall	1.824055e-01	1.824055e-01	1.824055e-01
3.44          	bottomWall	1.832013e-01	1.832013e-01	1.832013e-01
3.45          	bottomWall	1.839907e-01	1.839907e-01	1.839907e-01
3.46          	bottomWall	1.847736e-01	1.847736e-01	1.847736e-01
3.47          	bottomWall	1.855500e-01	1.855500e-01	1.855500e-01
3.48          	bottomWall	1.863199e-01	1.863199e-01	1.863199e-01
3.49          	bottomWall	1.870832e-01	1.870832e-01	1.870832e-01
3.5           	bottomWall	1.878399e-01	1.878399e-01	1.878399e-01
3.51          	bottomWall	1.885901e-01	1.885901e-01	1.885901e-01
3.52          	bottomWall	1.893336e-01	1.893336e-01	1.893336e-01
3.53          	bottomWall	1.900705e-01	1.900705e-01	1.900705e-01
3.54          	bottomWall	1.908007e-01	1.908007e-01	1.908007e-01
3.55          	bottomWall	1.915242e-01	1.915242e-01	1.915242e-01
3.56          	bottomWall	1.922410e-01	1.922410e-01	1.922410e-01
3.57          	bottomWall	1.929510e-01	1.929510e-01	1.929510e-01
3.58          	bottomWall	1.936543e-01	1.936543e-01	1.936543e-01
3.59          	bottomWall	1.943508e-01	1.943508e-01	1.943508e-01
3.6           	bottomWall	1.950404e-01	1.950404e-01	1.950404e-01
3.61          	bottomWall	1.957233e-01	1.957233e-01	1.957233e-01
3.62          	bottomWall	1.963992e-01	1.963992e-01	1.963992e-01
3.63          	bottomWall	1.970683e-01	1.970683e-01	1.970683e-01
3.64          	bottomWall	1.977305e-01	1.977305e-01	1.977305e-01
3.65          	bottomWall	1.983858e-01	1.983858e-01	1.983858e-01
3.66          	bottomWall	1.990341e-01	1.990341e-01	1.990341e-01
3.67          	bottomWall	1.996755e-01	1.996755e-01	1.996755e-01
3.68          	bottomWall	2.003098e-01	2.003098e-01	2.003098e-01
3.69          	bottomWall	2.009372e-01	2.009372e-01	2.009372e-01
3.7           	bottomWall	2.015575e-01	2.015575e-01	2.015575e-01
3.71          	bottomWall	2.021707e-01	2.021707e-01	2.021707e-01
3.72          	bottomWall	2.027769e-01	2.027769e-01	2.027769e-01
3.73          	bottomWall	2.033760e-01	2.033760e-01	2.033760e-01
3.74          	bottomWall	2.039679e-01	2.039679e-01	2.039679e-01
3.75          	bottomWall	2.045527e-01	2.045528e-01	2.045527e-01
3.76          	bottomWall	2.051304e-01	2.051304e-01	2.051304e-01
3.77          	bottomWall	2.057009e-01	2.057009e-01	2.057009e-01
3.78          	bottomWall	2.062642e-01	2.062642e-01	2.062642e-01
3.79          	bottomWall	2.068203e-01	2.068203e-01	2.068203e-01
3.8           	bottomWall	2.073691e-01	2.073691e-01	2.073691e-01
3.81          	bottomWall	2.079107e-01	2.079107e-01	2.079107e-01
3.82          	bottomWall	2.084450e-01	2.084450e-01	2.084450e-01
3.83          	bottomWall	2.089720e-01	2.089720e-01	2.089720e-01
3.84          	bottomWall	2.094917e-01	2.094917e-01	2.094917e-01
3.85          	bottomWall	2.100040e-01	2.100041e-01	2.100040e-01
3.86          	bottomWall	2.105091e-01	2.105091e-01	2.105091e-01
3.87          	bottomWall	2.110067e-01	2.110067e-01	2.110067e-01
3.88          	bottomWall	2.114970e-01	2.114970e-01	2.114970e-01
3.89          	bottomWall	2.119798e-01	2.119799e-01	2.119798e-01
3.9           	bottomWall	2.124553e-01	2.124553e-01	2.124553e-01
3.91          	bottomWall	2.129233e-01	2.129233e-01	2.129233e-01
3.92          	bottomWall	2.133839e-01	2.133839e-01	2.133839e-01
3.93          	bottomWall	2.138369e-01	2.138369e-01	2.138369e-01
3.94          	bottomWall	2.142825e-01	2.142825e-01	2.142825e-01
3.95          	bottomWall	2.147206e-01	2.147206e-01	2.147206e-01
3.96          	bottomWall	2.151512e-01	2.151512e-01	2.151512e-01
3.97          	bottomWall	2.155742e-01	2.155742e-01	2.155742e-01
3.98          	bottomWall	2.159897e-01	2.159897e-01	2.159897e-01
3.99          	bottomWall	2.163977e-01	2.163977e-01	2.163977e-01
4             	bottomWall	2.167980e-01	2.167980e-01	2.167980e-01
4.01          	bottomWall	2.171907e-01	2.171907e-01	2.171907e-01
4.02          	bottomWall	2.175759e-01	2.175759e-01	2.175759e-01
4.03          	bottomWall	2.179534e-01	2.179534e-01	2.179534e-01
4.04          	bottomWall	2.183232e-01	2.183233e-01	2.183232e-01
4.05          	bottomWall	2.186855e-01	2.186855e-01	2.186855e-01
4.06          	bottomWall	2.190400e-01	2.190400e-01	2.190400e-01
4.07          	bottomWall	2.193869e-01	2.193869e-01	2.193869e-01
4.08          	bottomWall	2.197260e-01	2.197260e-01	2.197260e-01
4.09          	bottomWall	2.200575e-01	2.200575e-01	2.200575e-01
4.1           	bottomWall	2.203812e-01	2.203812e-01	2.203812e-01
4.11          	bottomWall	2.206972e-01	2.206972e-01	2.206972e-01
4.12          	bottomWall	2.210055e-01	2.210055e-01	2.210055e-01
4.13          	bottomWall	2.213060e-01	2.213060e-01	2.213060e-01
4.14          	bottomWall	2.215987e-01	2.215987e-01	2.215987e-01
4.15          	bottomWall	2.218836e-01	2.218837e-01	2.218836e-01
4.16          	bottomWall	2.221608e-01	2.221608e-01	2.221608e-01
4.17          	bottomWall	2.224301e-01	2.224301e-01	2.224301e-01
4.18          	bottomWall	2.226916e-01	2.226916e-01	2.226916e-01
4.19          	bottomWall	2.229453e-01	2.229453e-01	2.229453e-01
4.2           	bottomWall	2.231912e-01	2.231912e-01	2.231912e-01
4.21          	bottomWall	2.234292e-01	2.234292e-01	2.234292e-01
4.22          	bottomWall	2.236593e-01	2.236593e-01	2.236593e-01
4.23          	bottomWall	2.238816e-01	2.238816e-01	2.238816e-01
4.24          	bottomWall	2.240960e-01	2.240960e-01	2.240960e-01
4.25          	bottomWall	2.243025e-01	2.243025e-01	2.243025e-01
4.26          	bottomWall	2.245011e-01	2.245011e-01	2.245011e-01
4.27          	bottomWall	2.246918e-01	2.246918e-01	2.246918e-01
4.28          	bottomWall	2.248745e-01	2.248745e-01	2.248745e-01
4.29          	bottomWall	2.250494e-01	2.250494e-01	2.250494e-01
4.3           	bottomWall	2.252163e-01	2.252163e-01	2.252163e-01
4.31          	bottomWall	2.253753e-01	2.253753e-01	2.253753e-01
4.32          	bottomWall	2.255263e-01	2.255263e-01	2.255263e-01
4.33          	bottomWall	2.256693e-01	2.256693e-01	2.256693e-01
4.34          	bottomWall	2.258044e-01	2.258044e-01	2.258044e-01
4.35          	bottomWall	2.259315e-01	2.259315e-01	2.259315e-01
4.36          	bottomWall	2.260507e-01	2.260507e-01	2.260507e-01
4.37          	bottomWall	2.261618e-01	2.261618e-01	2.261618e-01
4.38          	bottomWall	2.262650e-01	2.262650e-01	2.262650e-01
4.39          	bottomWall	2.263601e-01	2.263601e-01	2.263601e-01
4.4           	bottomWall	2.264472e-01	2.264472e-01	2.264472e-01
4.41          	bottomWall	2.265264e-01	2.265264e-01	2.265264e-01
4.42          	bottomWall	2.265975e-01	2.265975e-01	2.265975e-01
4.43          	bottomWall	2.266606e-01	2.266606e-01	2.266606e-01
4.44          	bottomWall	2.267156e-01	2.267156e-01	2.267156e-01
4.45          	bottomWall	2.267626e-01	2.267626e-01	2.267626e-01
4.46          	bottomWall	2.268016e-01	2.268016e-01	2.268016e-01
4.47          	bottomWall	2.268326e-01	2.268326e-01	2.268326e-01
4.48          	bottomWall	2.268554e-01	2.268554e-01	2.268554e-01
4.49          	bottomWall	2.268703e-01	2.268703e-01	2.268703e-01
4.5           	bottomWall	2.268771e-01	2.268771e-01	2.268771e-01
4.51          	bottomWall	2.268758e-01	2.268758e-01	2.268758e-01
4.52          	bottomWall	2.268664e-01	2.268664e-01	2.268664e-01
4.53          	bottomWall	2.268490e-01	2.268490e-01	2.268490e-01
4.54          	bottomWall	2.268236e-01	2.268236e-01	2.268236e-01
4.55          	bottomWall	2.267900e-01	2.267900e-01	2.267900e-01
4.56          	bottomWall	2.267484e-01	2.267484e-01	2.267484e-01
4.57          	bottomWall	2.266987e-01	2.266987e-01	2.266987e-01
4.58          	bottomWall	2.266409e-01	2.266409e-01	2.266409e-01
4.59          	bottomWall	2.265751e-01	2.265751e-01	2.265751e-01
4.6           	bottomWall	2.265011e-01	2.265011e-01	2.265011e-01