# Wall shear stress
# Time        	patch         	min           	max           
0.01          	bottom	(-6.584501e-02 -1.340559e-11 0.000000e+00)	(-6.584501e-02 2.707522e-11 0.000000e+00)
0.02          	bottom	(-8.338282e-02 -5.121669e-11 0.000000e+00)	(-8.338282e-02 9.792493e-11 0.000000e+00)
0.03          	bottom	(-8.290154e-02 -2.845055e-11 0.000000e+00)	(-8.290154e-02 5.526542e-11 0.000000e+00)
0.04          	bottom	(-5.427301e-02 -4.019589e-09 0.000000e+00)	(-5.427298e-02 6.400321e-09 0.000000e+00)
0.05          	bottom	(-1.786033e-02 -1.805093e-09 0.000000e+00)	(-1.786031e-02 2.936732e-09 0.000000e+00)
0.06          	bottom	(-2.607249e-05 -2.206031e-12 0.000000e+00)	(-2.607247e-05 6.681751e-12 0.000000e+00)
0.07          	bottom	(-3.376526e-05 -6.606727e-13 0.000000e+00)	(-3.376524e-05 1.282205e-12 0.000000e+00)
0.08          	bottom	(-5.200808e-05 -3.170303e-13 0.000000e+00)	(-5.200807e-05 8.103853e-13 0.000000e+00)
0.09          	bottom	(-6.965185e-05 -2.453290e-13 0.000000e+00)	(-6.965185e-05 9.427258e-13 0.000000e+00)
0.1           	bottom	(-8.673521e-05 -3.440366e-13 0.000000e+00)	(-8.673520e-05 9.615203e-13 0.000000e+00)
0.11          	bottom	(-1.032813e-04 -4.807171e-13 0.000000e+00)	(-1.032813e-04 8.474421e-13 0.000000e+00)
0.12          	bottom	(-1.193233e-04 -5.470481e-13 0.000000e+00)	(-1.193233e-04 6.348169e-13 0.000000e+00)
0.13          	bottom	(-1.348969e-04 -6.217468e-13 0.000000e+00)	(-1.348969e-04 3.639357e-13 0.000000e+00)
0.14          	bottom	(-1.500392e-04 -7.552765e-13 0.000000e+00)	(-1.500392e-04 3.094952e-13 0.000000e+00)
0.15          	bottom	(-1.647889e-04 -8.301908e-13 0.000000e+00)	(-1.647889e-04 5.391187e-13 0.000000e+00)
0.16          	bottom	(-1.791888e-04 -9.513968e-13 0.000000e+00)	(-1.791888e-04 7.693882e-13 0.000000e+00)
0.17          	bottom	(-1.932898e-04 -1.140034e-12 0.000000e+00)	(-1.932898e-04 1.013696e-12 0.000000e+00)
0.18          	bottom	(-2.071608e-04 -9.878138e-13 0.000000e+00)	(-2.071608e-04 1.158390e-12 0.000000e+00)
0.19          	bottom	(-2.209083e-04 -8.854077e-13 0.000000e+00)	(-2.209083e-04 1.135597e-12 0.000000e+00)
0.2           	bottom	(-2.347176e-04 -7.174660e-13 0.000000e+00)	(-2.347176e-04 1.047401e-12 0.000000e+00)
0.21          	bottom	(-2.489422e-04 -4.411697e-13 0.000000e+00)	(-2.489422e-04 7.184229e-13 0.000000e+00)
0.22          	bottom	(-2.643003e-04 -1.471525e-12 0.000000e+00)	(-2.643003e-04 6.617441e-13 0.000000e+00)
0.23          	bottom	(-2.823280e-04 -7.233698e-13 0.000000e+00)	(-2.823280e-04 8.988699e-13 0.000000e+00)
0.24          	bottom	(-3.064788e-04 -8.737057e-13 0.000000e+00)	(-3.064788e-04 7.886674e-13 0.000000e+00)
0.25          	bottom	(-3.449859e-04 -1.159535e-12 0.000000e+00)	(-3.449859e-04 4.054727e-13 0.000000e+00)
0.26          	bottom	(-4.094244e-04 -2.355769e-12 0.000000e+00)	(-4.094244e-04 4.500894e-13 0.000000e+00)
0.27          	bottom	(-4.945778e-04 -2.394473e-12 0.000000e+00)	(-4.945778e-04 1.419386e-12 0.000000e+00)
0.28          	bottom	(-8.205099e-04 -2.551091e-12 0.000000e+00)	(-8.205097e-04 3.869552e-12 0.000000e+00)
0.29          	bottom	(-1.486996e-03 -1.691725e-11 0.000000e+00)	(-1.486995e-03 1.010659e-11 0.000000e+00)
0.3           	bottom	(-2.652600e-03 -2.678834e-11 0.000000e+00)	(-2.652600e-03 1.387126e-11 0.000000e+00)
0.31          	bottom	(-4.298021e-03 -5.007166e-11 0.000000e+00)	(-4.298021e-03 2.247658e-11 0.000000e+00)
0.32          	bottom	(-6.168636e-03 -5.593006e-11 0.000000e+00)	(-6.168636e-03 2.583601e-11 0.000000e+00)
0.33          	bottom	(-7.967623e-03 -5.203268e-11 0.000000e+00)	(-7.967623e-03 2.188812e-11 0.000000e+00)
0.34          	bottom	(-9.506670e-03 -3.727956e-11 0.000000e+00)	(-9.506670e-03 1.270494e-11 0.000000e+00)
0.35          	bottom	(-1.072960e-02 -4.047421e-11 0.000000e+00)	(-1.072960e-02 1.666032e-11 0.000000e+00)
0.36          	bottom	(-1.166007e-02 -3.989673e-11 0.000000e+00)	(-1.166007e-02 1.856809e-11 0.000000e+00)
0.37          	bottom	(-1.235986e-02 -3.720243e-11 0.000000e+00)	(-1.235986e-02 1.687629e-11 0.000000e+00)
0.38          	bottom	(-1.287076e-02 -3.570380e-11 0.000000e+00)	(-1.287076e-02 1.674219e-11 0.000000e+00)
0.39          	bottom	(-1.323080e-02 -3.415161e-11 0.000000e+00)	(-1.323080e-02 1.646868e-11 0.000000e+00)
0.4           	bottom	(-1.347226e-02 -3.227358e-11 0.000000e+00)	(-1.347226e-02 1.583650e-11 0.000000e+00)
0.41          	bottom	(-1.362139e-02 -3.023124e-11 0.000000e+00)	(-1.362139e-02 1.470101e-11 0.000000e+00)
0.42          	bottom	(-1.369886e-02 -2.879335e-11 0.000000e+00)	(-1.369886e-02 1.431458e-11 0.000000e+00)
0.43          	bottom	(-1.372076e-02 -2.904927e-11 0.000000e+00)	(-1.372076e-02 1.571410e-11 0.000000e+00)
0.44          	bottom	(-1.369880e-02 -2.694643e-11 0.000000e+00)	(-1.369880e-02 1.436536e-11 0.000000e+00)
0.45          	bottom	(-1.364214e-02 -2.560174e-11 0.000000e+00)	(-1.364214e-02 1.376186e-11 0.000000e+00)
0.46          	bottom	(-1.355844e-02 -2.442807e-11 0.000000e+00)	(-1.355844e-02 1.323783e-11 0.000000e+00)
0.47          	bottom	(-1.345408e-02 -2.300024e-11 0.000000e+00)	(-1.345408e-02 1.238905e-11 0.000000e+00)
0.48          	bottom	(-1.333419e-02 -2.216977e-11 0.000000e+00)	(-1.333419e-02 1.184139e-11 0.000000e+00)
0.49          	bottom	(-1.320004e-02 -1.972851e-11 0.000000e+00)	(-1.320004e-02 1.087466e-11 0.000000e+00)
0.5           	bottom	(-1.305316e-02 -1.850188e-11 0.000000e+00)	(-1.305316e-02 1.017284e-11 0.000000e+00)
0.51          	bottom	(-1.289766e-02 -1.761309e-11 0.000000e+00)	(-1.289766e-02 9.695519e-12 0.000000e+00)
0.52          	bottom	(-1.273713e-02 -1.683488e-11 0.000000e+00)	(-1.273713e-02 9.335933e-12 0.000000e+00)
0.53          	bottom	(-1.257430e-02 -1.619444e-11 0.000000e+00)	(-1.257430e-02 9.012875e-12 0.000000e+00)
0.54          	bottom	(-1.241105e-02 -1.526572e-11 0.000000e+00)	(-1.241105e-02 8.593477e-12 0.000000e+00)
0.55          	bottom	(-1.224867e-02 -1.390875e-11 0.000000e+00)	(-1.224867e-02 8.305926e-12 0.000000e+00)
0.56          	bottom	(-1.208777e-02 -1.357390e-11 0.000000e+00)	(-1.208777e-02 6.532910e-12 0.000000e+00)
0.57          	bottom	(-1.192860e-02 -4.289874e-11 0.000000e+00)	(-1.192860e-02 5.293193e-11 0.000000e+00)
0.58          	bottom	(-1.177154e-02 -6.698179e-11 0.000000e+00)	(-1.177154e-02 6.973408e-11 0.000000e+00)
0.59          	bottom	(-1.161670e-02 -2.949795e-11 0.000000e+00)	(-1.161670e-02 3.319609e-11 0.000000e+00)
0.6           	bottom	(-1.146411e-02 -2.673947e-11 0.000000e+00)	(-1.146411e-02 2.215418e-11 0.000000e+00)
0.61          	bottom	(-1.131373e-02 -1.485144e-11 0.000000e+00)	(-1.131373e-02 1.043839e-11 0.000000e+00)
0.62          	bottom	(-1.116554e-02 -7.633432e-11 0.000000e+00)	(-1.116554e-02 5.676807e-11 0.000000e+00)
0.63          	bottom	(-1.101947e-02 -6.455759e-11 0.000000e+00)	(-1.101947e-02 5.824504e-11 0.000000e+00)
0.64          	bottom	(-1.087548e-02 -2.082696e-11 0.000000e+00)	(-1.087548e-02 2.340128e-11 0.000000e+00)
0.65          	bottom	(-1.073349e-02 -6.833470e-12 0.000000e+00)	(-1.073349e-02 6.643961e-12 0.000000e+00)
0.66          	bottom	(-1.059344e-02 -6.987123e-11 0.000000e+00)	(-1.059343e-02 7.411211e-11 0.000000e+00)
0.67          	bottom	(-1.045519e-02 -7.762501e-11 0.000000e+00)	(-1.045519e-02 7.151448e-11 0.000000e+00)
0.68          	bottom	(-1.031863e-02 -3.233044e-11 0.000000e+00)	(-1.031863e-02 3.614877e-11 0.000000e+00)
0.69          	bottom	(-1.018365e-02 -2.843754e-11 0.000000e+00)	(-1.018365e-02 2.435029e-11 0.000000e+00)
0.7           	bottom	(-1.005016e-02 -2.135036e-11 0.000000e+00)	(-1.005016e-02 1.594808e-11 0.000000e+00)
0.71          	bottom	(-9.918109e-03 -1.210983e-11 0.000000e+00)	(-9.918108e-03 7.631277e-12 0.000000e+00)
0.72          	bottom	(-9.787434e-03 -1.170918e-11 0.000000e+00)	(-9.787434e-03 6.871660e-12 0.000000e+00)
0.73          	bottom	(-9.658095e-03 -1.336402e-11 0.000000e+00)	(-9.658094e-03 8.561396e-12 0.000000e+00)
0.74          	bottom	(-9.530046e-03 -1.397212e-11 0.000000e+00)	(-9.530046e-03 8.693464e-12 0.000000e+00)
0.75          	bottom	(-9.403239e-03 -1.274071e-11 0.000000e+00)	(-9.403238e-03 7.882670e-12 0.000000e+00)
0.76          	bottom	(-9.277612e-03 -1.210984e-11 0.000000e+00)	(-9.277612e-03 7.387083e-12 0.000000e+00)
0.77          	bottom	(-9.153104e-03 -1.254535e-11 0.000000e+00)	(-9.153103e-03 7.957470e-12 0.000000e+00)
0.78          	bottom	(-9.029658e-03 -1.212071e-11 0.000000e+00)	(-9.029657e-03 7.746559e-12 0.000000e+00)
0.79          	bottom	(-8.907230e-03 -1.159589e-11 0.000000e+00)	(-8.907230e-03 7.573057e-12 0.000000e+00)
0.8           	bottom	(-8.785786e-03 -1.138089e-11 0.000000e+00)	(-8.785785e-03 7.379482e-12 0.000000e+00)
0.81          	bottom	(-8.665296e-03 -1.151591e-11 0.000000e+00)	(-8.665295e-03 7.225233e-12 0.000000e+00)
0.82          	bottom	(-8.545738e-03 -1.099097e-11 0.000000e+00)	(-8.545738e-03 6.851531e-12 0.000000e+00)
0.83          	bottom	(-8.427090e-03 -1.091921e-11 0.000000e+00)	(-8.427089e-03 6.754913e-12 0.000000e+00)
0.84          	bottom	(-8.309323e-03 -9.993649e-12 0.000000e+00)	(-8.309323e-03 6.169195e-12 0.000000e+00)
0.85          	bottom	(-8.192406e-03 -9.973151e-12 0.000000e+00)	(-8.192406e-03 6.280562e-12 0.000000e+00)
0.86          	bottom	(-8.076307e-03 -9.879931e-12 0.000000e+00)	(-8.076306e-03 6.168267e-12 0.000000e+00)
0.87          	bottom	(-7.960998e-03 -9.451604e-12 0.000000e+00)	(-7.960997e-03 5.974162e-12 0.000000e+00)
0.88          	bottom	(-7.846456e-03 -8.455834e-12 0.000000e+00)	(-7.846455e-03 5.219921e-12 0.000000e+00)
0.89          	bottom	(-7.732664e-03 -8.510947e-12 0.000000e+00)	(-7.732663e-03 5.653588e-12 0.000000e+00)
0.9           	bottom	(-7.619608e-03 -8.982117e-12 0.000000e+00)	(-7.619607e-03 5.756500e-12 0.000000e+00)
0.91          	bottom	(-7.507275e-03 -7.800260e-12 0.000000e+00)	(-7.507275e-03 5.029046e-12 0.000000e+00)
0.92          	bottom	(-7.395653e-03 -7.605811e-12 0.000000e+00)	(-7.395652e-03 4.734932e-12 0.000000e+00)
0.93          	bottom	(-7.284724e-03 -7.233572e-12 0.000000e+00)	(-7.284724e-03 5.137279e-12 0.000000e+00)
0.94          	bottom	(-7.174475e-03 -8.030255e-12 0.000000e+00)	(-7.174474e-03 5.607101e-12 0.000000e+00)
0.95          	bottom	(-7.064890e-03 -7.684609e-12 0.000000e+00)	(-7.064889e-03 4.640909e-12 0.000000e+00)
0.96          	bottom	(-6.955959e-03 -8.137213e-12 0.000000e+00)	(-6.955958e-03 5.341414e-12 0.000000e+00)
0.97          	bottom	(-6.847673e-03 -6.498199e-12 0.000000e+00)	(-6.847672e-03 4.114642e-12 0.000000e+00)
0.98          	bottom	(-6.740026e-03 -6.787209e-12 0.000000e+00)	(-6.740026e-03 5.072045e-12 0.000000e+00)
0.99          	bottom	(-6.633015e-03 -8.641470e-12 0.000000e+00)	(-6.633015e-03 5.952911e-12 0.000000e+00)
1             	bottom	(-6.526636e-03 -6.527004e-12 0.000000e+00)	(-6.526635e-03 2.948113e-12 0.000000e+00)
1.01          	bottom	(-6.420882e-03 -8.554798e-12 0.000000e+00)	(-6.420881e-03 5.127470e-12 0.000000e+00)
1.02          	bottom	(-6.315749e-03 -5.804404e-12 0.000000e+00)	(-6.315749e-03 3.782512e-12 0.000000e+00)
1.03          	bottom	(-6.211235e-03 -7.388281e-12 0.000000e+00)	(-6.211234e-03 5.523815e-12 0.000000e+00)
1.04          	bottom	(-6.107336e-03 -1.104791e-11 0.000000e+00)	(-6.107335e-03 8.621911e-12 0.000000e+00)
1.05          	bottom	(-6.004053e-03 -4.994063e-12 0.000000e+00)	(-6.004052e-03 4.051879e-12 0.000000e+00)
1.06          	bottom	(-5.901387e-03 -1.017511e-11 0.000000e+00)	(-5.901386e-03 6.360604e-12 0.000000e+00)
1.07          	bottom	(-5.799339e-03 -4.829993e-12 0.000000e+00)	(-5.799339e-03 3.685727e-12 0.000000e+00)
1.08          	bottom	(-5.697913e-03 -1.391161e-11 0.000000e+00)	(-5.697913e-03 2.088814e-11 0.000000e+00)
1.09          	bottom	(-5.597110e-03 -2.066770e-11 0.000000e+00)	(-5.597109e-03 2.572516e-11 0.000000e+00)
1.1           	bottom	(-5.496932e-03 -1.482315e-11 0.000000e+00)	(-5.496931e-03 2.214585e-11 0.000000e+00)
1.11          	bottom	(-5.397381e-03 -1.231253e-11 0.000000e+00)	(-5.397380e-03 1.735315e-11 0.000000e+00)
1.12          	bottom	(-5.298462e-03 -1.536473e-11 0.000000e+00)	(-5.298461e-03 1.184590e-11 0.000000e+00)
1.13          	bottom	(-5.200179e-03 -1.464269e-11 0.000000e+00)	(-5.200178e-03 2.210507e-11 0.000000e+00)
1.14          	bottom	(-5.102537e-03 -3.545762e-11 0.000000e+00)	(-5.102537e-03 2.074135e-11 0.000000e+00)
1.15          	bottom	(-5.005543e-03 -1.552908e-11 0.000000e+00)	(-5.005543e-03 1.873808e-11 0.000000e+00)
1.16          	bottom	(-4.909203e-03 -2.644156e-11 0.000000e+00)	(-4.909202e-03 1.844215e-11 0.000000e+00)
1.17          	bottom	(-4.813522e-03 -1.887318e-11 0.000000e+00)	(-4.813521e-03 1.626543e-11 0.000000e+00)
1.18          	bottom	(-4.718506e-03 -8.200946e-12 0.000000e+00)	(-4.718505e-03 9.543423e-12 0.000000e+00)
1.19          	bottom	(-4.624161e-03 -3.955323e-11 0.000000e+00)	(-4.624160e-03 2.687792e-11 0.000000e+00)
1.2           	bottom	(-4.530494e-03 -2.343994e-11 0.000000e+00)	(-4.530493e-03 1.844941e-11 0.000000e+00)
1.21          	bottom	(-4.437513e-03 -2.180965e-11 0.000000e+00)	(-4.437512e-03 2.029783e-11 0.000000e+00)
1.22          	bottom	(-4.345226e-03 -1.504110e-11 0.000000e+00)	(-4.345225e-03 9.365641e-12 0.000000e+00)
1.23          	bottom	(-4.253640e-03 -1.535408e-11 0.000000e+00)	(-4.253639e-03 1.888399e-11 0.000000e+00)
1.24          	bottom	(-4.162764e-03 -1.416563e-11 0.000000e+00)	(-4.162763e-03 7.172239e-12 0.000000e+00)
1.25          	bottom	(-4.072606e-03 -8.464132e-12 0.000000e+00)	(-4.072605e-03 1.110277e-11 0.000000e+00)
1.26          	bottom	(-3.983174e-03 -1.243555e-11 0.000000e+00)	(-3.983173e-03 5.667004e-12 0.000000e+00)
1.27          	bottom	(-3.894476e-03 -9.601874e-12 0.000000e+00)	(-3.894476e-03 7.291311e-12 0.000000e+00)
1.28          	bottom	(-3.806522e-03 -1.269429e-11 0.000000e+00)	(-3.806522e-03 9.727533e-12 0.000000e+00)
1.29          	bottom	(-3.719321e-03 -1.088012e-11 0.000000e+00)	(-3.719320e-03 4.854512e-12 0.000000e+00)
1.3           	bottom	(-3.632882e-03 -1.151477e-11 0.000000e+00)	(-3.632881e-03 9.105562e-12 0.000000e+00)
1.31          	bottom	(-3.547214e-03 -1.078293e-11 0.000000e+00)	(-3.547214e-03 6.565033e-12 0.000000e+00)
1.32          	bottom	(-3.462328e-03 -2.672126e-11 0.000000e+00)	(-3.462327e-03 8.877793e-12 0.000000e+00)
1.33          	bottom	(-3.378233e-03 -2.967454e-11 0.000000e+00)	(-3.378232e-03 3.468678e-11 0.000000e+00)
1.34          	bottom	(-3.294938e-03 -2.031258e-11 0.000000e+00)	(-3.294938e-03 1.293690e-11 0.000000e+00)
1.35          	bottom	(-3.212455e-03 -2.192656e-11 0.000000e+00)	(-3.212454e-03 2.139071e-11 0.000000e+00)
1.36          	bottom	(-3.130792e-03 -1.980698e-11 0.000000e+00)	(-3.130791e-03 1.111563e-11 0.000000e+00)
1.37          	bottom	(-3.049961e-03 -1.907131e-11 0.000000e+00)	(-3.049960e-03 1.705314e-11 0.000000e+00)
1.38          	bottom	(-2.969971e-03 -1.854777e-11 0.000000e+00)	(-2.969970e-03 1.432693e-11 0.000000e+00)
1.39          	bottom	(-2.890834e-03 -1.411602e-11 0.000000e+00)	(-2.890833e-03 1.422588e-11 0.000000e+00)
1.4           	bottom	(-2.812559e-03 -1.523588e-11 0.000000e+00)	(-2.812558e-03 7.217676e-12 0.000000e+00)
1.41          	bottom	(-2.735157e-03 -1.698001e-11 0.000000e+00)	(-2.735156e-03 1.025188e-11 0.000000e+00)
1.42          	bottom	(-2.658639e-03 -1.461121e-11 0.000000e+00)	(-2.658638e-03 8.577115e-12 0.000000e+00)
1.43          	bottom	(-2.583015e-03 -1.817171e-11 0.000000e+00)	(-2.583014e-03 9.232205e-12 0.000000e+00)
1.44          	bottom	(-2.508295e-03 -1.576546e-11 0.000000e+00)	(-2.508295e-03 1.319473e-11 0.000000e+00)
1.45          	bottom	(-2.434491e-03 -1.785343e-11 0.000000e+00)	(-2.434490e-03 6.174180e-12 0.000000e+00)
1.46          	bottom	(-2.361613e-03 -2.541344e-11 0.000000e+00)	(-2.361612e-03 1.610578e-11 0.000000e+00)
1.47          	bottom	(-2.289670e-03 -1.511314e-11 0.000000e+00)	(-2.289670e-03 1.180167e-11 0.000000e+00)
1.48          	bottom	(-2.218674e-03 -1.966388e-11 0.000000e+00)	(-2.218674e-03 8.863073e-12 0.000000e+00)
1.49          	bottom	(-2.148635e-03 -1.978038e-11 0.000000e+00)	(-2.148635e-03 1.186063e-11 0.000000e+00)
1.5           	bottom	(-2.079563e-03 -1.695735e-11 0.000000e+00)	(-2.079562e-03 8.027284e-12 0.000000e+00)
1.51          	bottom	(-2.011468e-03 -1.983507e-11 0.000000e+00)	(-2.011467e-03 9.589059e-12 0.000000e+00)
1.52          	bottom	(-1.944359e-03 -1.893724e-11 0.000000e+00)	(-1.944359e-03 1.149086e-11 0.000000e+00)
1.53          	bottom	(-1.878247e-03 -1.643233e-11 0.000000e+00)	(-1.878247e-03 8.627420e-12 0.000000e+00)
1.54          	bottom	(-1.813141e-03 -1.836726e-11 0.000000e+00)	(-1.813141e-03 9.002428e-12 0.000000e+00)
1.55          	bottom	(-1.749051e-03 -1.683442e-11 0.000000e+00)	(-1.749050e-03 9.698345e-12 0.000000e+00)
1.56          	bottom	(-1.685984e-03 -1.509968e-11 0.000000e+00)	(-1.685984e-03 6.960031e-12 0.000000e+00)
1.57          	bottom	(-1.623951e-03 -1.683448e-11 0.000000e+00)	(-1.623950e-03 7.550914e-12 0.000000e+00)
1.58          	bottom	(-1.562959e-03 -1.657787e-11 0.000000e+00)	(-1.562958e-03 8.257653e-12 0.000000e+00)
1.59          	bottom	(-1.503017e-03 -1.536734e-11 0.000000e+00)	(-1.503016e-03 7.176420e-12 0.000000e+00)
1.6           	bottom	(-1.444132e-03 -1.623656e-11 0.000000e+00)	(-1.444131e-03 7.215848e-12 0.000000e+00)
1.61          	bottom	(-1.386311e-03 -1.598779e-11 0.000000e+00)	(-1.386311e-03 8.407159e-12 0.000000e+00)
1.62          	bottom	(-1.329563e-03 -1.445527e-11 0.000000e+00)	(-1.329562e-03 7.287859e-12 0.000000e+00)
1.63          	bottom	(-1.273892e-03 -1.481484e-11 0.000000e+00)	(-1.273891e-03 6.513624e-12 0.000000e+00)
1.64          	bottom	(-1.219305e-03 -1.475979e-11 0.000000e+00)	(-1.219304e-03 7.164703e-12 0.000000e+00)
1.65          	bottom	(-1.165808e-03 -1.356364e-11 0.000000e+00)	(-1.165807e-03 6.458126e-12 0.000000e+00)
1.66          	bottom	(-1.113404e-03 -1.380952e-11 0.000000e+00)	(-1.113404e-03 5.335695e-12 0.000000e+00)
1.67          	bottom	(-1.062100e-03 -1.471989e-11 0.000000e+00)	(-1.062100e-03 6.093640e-12 0.000000e+00)
1.68          	bottom	(-1.011898e-03 -1.446498e-11 0.000000e+00)	(-1.011897e-03 6.354273e-12 0.000000e+00)
1.69          	bottom	(-9.628010e-04 -1.363354e-11 0.000000e+00)	(-9.628006e-04 6.008775e-12 0.000000e+00)
1.7           	bottom	(-9.148118e-04 -1.368792e-11 0.000000e+00)	(-9.148114e-04 6.060616e-12 0.000000e+00)
1.71          	bottom	(-8.679337e-04 -8.666887e-11 0.000000e+00)	(-8.679300e-04 3.258205e-11 0.000000e+00)
1.72          	bottom	(-8.221624e-04 -9.747337e-11 0.000000e+00)	(-8.221586e-04 5.042009e-11 0.000000e+00)
1.73          	bottom	(-7.775014e-04 -8.939192e-11 0.000000e+00)	(-7.774978e-04 5.051824e-11 0.000000e+00)
1.74          	bottom	(-7.339499e-04 -7.554137e-11 0.000000e+00)	(-7.339466e-04 6.059441e-11 0.000000e+00)
1.75          	bottom	(-6.915064e-04 -4.930903e-11 0.000000e+00)	(-6.915032e-04 7.006495e-11 0.000000e+00)
1.76          	bottom	(-6.501679e-04 -4.870205e-11 0.000000e+00)	(-6.501649e-04 5.217532e-11 0.000000e+00)
1.77          	bottom	(-6.099310e-04 -6.819902e-11 0.000000e+00)	(-6.099281e-04 3.079830e-11 0.000000e+00)
1.78          	bottom	(-5.707912e-04 -7.792948e-11 0.000000e+00)	(-5.707884e-04 3.204696e-11 0.000000e+00)
1.79          	bottom	(-5.327431e-04 -7.603038e-11 0.000000e+00)	(-5.327404e-04 4.023814e-11 0.000000e+00)
1.8           	bottom	(-4.957803e-04 -7.056331e-11 0.000000e+00)	(-4.957777e-04 4.634373e-11 0.000000e+00)
1.81          	bottom	(-4.598953e-04 -6.652817e-11 0.000000e+00)	(-4.598929e-04 4.800574e-11 0.000000e+00)
1.82          	bottom	(-4.250798e-04 -6.567209e-11 0.000000e+00)	(-4.250775e-04 4.644142e-11 0.000000e+00)
1.83          	bottom	(-3.913242e-04 -6.730096e-11 0.000000e+00)	(-3.913221e-04 4.346929e-11 0.000000e+00)
1.84          	bottom	(-3.586180e-04 -6.998929e-11 0.000000e+00)	(-3.586161e-04 4.163976e-11 0.000000e+00)
1.85          	bottom	(-3.269497e-04 -7.222272e-11 0.000000e+00)	(-3.269479e-04 4.161384e-11 0.000000e+00)
1.86          	bottom	(-2.963066e-04 -7.376798e-11 0.000000e+00)	(-2.963050e-04 4.241675e-11 0.000000e+00)
1.87          	bottom	(-2.666753e-04 -7.518996e-11 0.000000e+00)	(-2.666738e-04 4.315453e-11 0.000000e+00)
1.88          	bottom	(-2.380410e-04 -7.473472e-11 0.000000e+00)	(-2.380396e-04 4.173270e-11 0.000000e+00)
1.89          	bottom	(-2.103882e-04 -7.329025e-11 0.000000e+00)	(-2.103870e-04 3.982593e-11 0.000000e+00)
1.9           	bottom	(-1.837004e-04 -7.155231e-11 0.000000e+00)	(-1.836993e-04 3.829550e-11 0.000000e+00)
1.91          	bottom	(-1.579601e-04 -6.968738e-11 0.000000e+00)	(-1.579592e-04 3.693914e-11 0.000000e+00)
1.92          	bottom	(-1.331491e-04 -6.713114e-11 0.000000e+00)	(-1.331482e-04 3.564540e-11 0.000000e+00)
1.93          	bottom	(-1.092480e-04 -6.398314e-11 0.000000e+00)	(-1.092474e-04 3.418165e-11 0.000000e+00)
1.94          	bottom	(-8.623721e-05 -6.034531e-11 0.000000e+00)	(-8.623666e-05 3.367242e-11 0.000000e+00)
1.95          	bottom	(-6.409593e-05 -5.593425e-11 0.000000e+00)	(-6.409553e-05 3.307806e-11 0.000000e+00)
1.96          	bottom	(-4.280298e-05 -4.743866e-11 0.000000e+00)	(-4.280271e-05 3.056736e-11 0.000000e+00)
1.97          	bottom	(-2.233653e-05 -3.705690e-11 0.000000e+00)	(-2.233638e-05 2.788132e-11 0.000000e+00)
1.98          	bottom	(-2.674273e-06 -2.555665e-11 0.000000e+00)	(-2.674218e-06 2.483000e-11 0.000000e+00)
1.99          	bottom	(1.625749e-05 -2.126480e-11 0.000000e+00)	(1.625760e-05 2.448049e-11 0.000000e+00)
2             	bottom	(3.478621e-05 -1.992239e-11 0.000000e+00)	(3.478639e-05 2.398114e-11 0.000000e+00)
2.01          	bottom	(5.320429e-05 -2.008357e-11 0.000000e+00)	(5.320455e-05 2.383120e-11 0.000000e+00)
2.02          	bottom	(7.169228e-05 -2.164473e-11 0.000000e+00)	(7.169260e-05 2.294028e-11 0.000000e+00)
2.03          	bottom	(9.036376e-05 -2.252529e-11 0.000000e+00)	(9.036413e-05 2.206579e-11 0.000000e+00)
2.04          	bottom	(1.092928e-04 -2.463416e-11 0.000000e+00)	(1.092931e-04 2.141226e-11 0.000000e+00)
2.05          	bottom	(1.285304e-04 -2.566132e-11 0.000000e+00)	(1.285308e-04 2.102535e-11 0.000000e+00)
2.06          	bottom	(1.481152e-04 -2.680342e-11 0.000000e+00)	(1.481156e-04 2.072981e-11 0.000000e+00)
2.07          	bottom	(1.680796e-04 -2.714434e-11 0.000000e+00)	(1.680799e-04 2.036168e-11 0.000000e+00)
2.08          	bottom	(1.884533e-04 -2.642792e-11 0.000000e+00)	(1.884536e-04 1.986592e-11 0.000000e+00)
2.09          	bottom	(2.092664e-04 -2.524808e-11 0.000000e+00)	(2.092667e-04 1.946882e-11 0.000000e+00)
2.1           	bottom	(2.305503e-04 -2.353785e-11 0.000000e+00)	(2.305506e-04 1.888958e-11 0.000000e+00)
2.11          	bottom	(2.523389e-04 -2.143361e-11 0.000000e+00)	(2.523393e-04 1.832386e-11 0.000000e+00)
2.12          	bottom	(2.746691e-04 -1.930657e-11 0.000000e+00)	(2.746696e-04 1.795627e-11 0.000000e+00)
2.13          	bottom	(2.975813e-04 -1.700845e-11 0.000000e+00)	(2.975819e-04 1.718490e-11 0.000000e+00)
2.14          	bottom	(3.211194e-04 -1.471901e-11 0.000000e+00)	(3.211200e-04 1.559091e-11 0.000000e+00)
2.15          	bottom	(3.453310e-04 -1.225754e-11 0.000000e+00)	(3.453317e-04 1.258699e-11 0.000000e+00)
2.16          	bottom	(3.702677e-04 -9.677268e-12 0.000000e+00)	(3.702685e-04 9.027715e-12 0.000000e+00)
2.17          	bottom	(3.959854e-04 -6.639407e-12 0.000000e+00)	(3.959862e-04 5.303767e-12 0.000000e+00)
2.18          	bottom	(4.225435e-04 -3.209274e-12 0.000000e+00)	(4.225445e-04 1.976883e-12 0.000000e+00)
2.19          	bottom	(4.500061e-04 -1.537919e-12 0.000000e+00)	(4.500072e-04 2.878395e-12 0.000000e+00)
2.2           	bottom	(4.784409e-04 -3.335075e-12 0.000000e+00)	(4.784422e-04 5.131639e-12 0.000000e+00)
2.21          	bottom	(5.079199e-04 -4.764890e-12 0.000000e+00)	(5.079214e-04 6.359998e-12 0.000000e+00)
2.22          	bottom	(5.385189e-04 -5.441533e-12 0.000000e+00)	(5.385205e-04 6.425691e-12 0.000000e+00)
2.23          	bottom	(5.703172e-04 -5.288930e-12 0.000000e+00)	(5.703191e-04 5.820136e-12 0.000000e+00)
2.24          	bottom	(6.033974e-04 -4.928361e-12 0.000000e+00)	(6.033995e-04 5.785521e-12 0.000000e+00)
2.25          	bottom	(6.378448e-04 -5.250266e-12 0.000000e+00)	(6.378472e-04 6.485525e-12 0.000000e+00)
2.26          	bottom	(6.737469e-04 -6.020063e-12 0.000000e+00)	(6.737496e-04 7.231167e-12 0.000000e+00)
2.27          	bottom	(7.111892e-04 -6.495415e-12 0.000000e+00)	(7.111922e-04 7.561840e-12 0.000000e+00)
2.28          	bottom	(7.502282e-04 -6.812732e-12 0.000000e+00)	(7.502317e-04 8.082004e-12 0.000000e+00)
2.29          	bottom	(7.909480e-04 -7.835585e-12 0.000000e+00)	(7.909519e-04 9.175861e-12 0.000000e+00)
2.3           	bottom	(8.334690e-04 -8.913484e-12 0.000000e+00)	(8.334733e-04 1.028584e-11 0.000000e+00)
2.31          	bottom	(8.778957e-04 -1.015849e-11 0.000000e+00)	(8.779005e-04 1.139572e-11 0.000000e+00)
2.32          	bottom	(9.243111e-04 -1.132671e-11 0.000000e+00)	(9.243164e-04 1.233028e-11 0.000000e+00)
2.33          	bottom	(9.727803e-04 -1.222849e-11 0.000000e+00)	(9.727862e-04 1.335866e-11 0.000000e+00)
2.34          	bottom	(1.023352e-03 -1.357719e-11 0.000000e+00)	(1.023358e-03 1.496858e-11 0.000000e+00)
2.35          	bottom	(1.076057e-03 -1.523925e-11 0.000000e+00)	(1.076064e-03 1.642724e-11 0.000000e+00)
2.36          	bottom	(1.130911e-03 -1.679468e-11 0.000000e+00)	(1.130919e-03 1.781800e-11 0.000000e+00)
2.37          	bottom	(1.187909e-03 -1.835300e-11 0.000000e+00)	(1.187917e-03 1.973490e-11 0.000000e+00)
2.38          	bottom	(1.247025e-03 -2.028674e-11 0.000000e+00)	(1.247033e-03 2.164736e-11 0.000000e+00)
2.39          	bottom	(1.308214e-03 -2.206987e-11 0.000000e+00)	(1.308223e-03 2.342631e-11 0.000000e+00)
2.4           	bottom	(1.371406e-03 -2.375277e-11 0.000000e+00)	(1.371416e-03 2.597701e-11 0.000000e+00)
2.41          	bottom	(1.436511e-03 -2.550897e-11 0.000000e+00)	(1.436521e-03 2.829510e-11 0.000000e+00)
2.42          	bottom	(1.503414e-03 -2.730053e-11 0.000000e+00)	(1.503424e-03 3.074794e-11 0.000000e+00)
2.43          	bottom	(1.571977e-03 -2.935409e-11 0.000000e+00)	(1.571988e-03 3.315146e-11 0.000000e+00)
2.44          	bottom	(1.642056e-03 -3.119546e-11 0.000000e+00)	(1.642067e-03 3.533994e-11 0.000000e+00)
2.45          	bottom	(1.713500e-03 -3.305734e-11 0.000000e+00)	(1.713511e-03 3.745297e-11 0.000000e+00)
2.46          	bottom	(1.786154e-03 -3.482043e-11 0.000000e+00)	(1.786165e-03 3.955245e-11 0.000000e+00)
2.47          	bottom	(1.859859e-03 -3.667871e-11 0.000000e+00)	(1.859870e-03 4.148949e-11 0.000000e+00)
2.48          	bottom	(1.934455e-03 -3.832975e-11 0.000000e+00)	(1.934467e-03 4.321099e-11 0.000000e+00)
2.49          	bottom	(2.009784e-03 -3.975425e-11 0.000000e+00)	(2.009796e-03 4.489455e-11 0.000000e+00)
2.5           	bottom	(2.085695e-03 -3.875891e-11 0.000000e+00)	(2.085707e-03 5.092783e-11 0.000000e+00)
2.51          	bottom	(2.162047e-03 -4.390174e-11 0.000000e+00)	(2.162059e-03 4.925104e-11 0.000000e+00)
2.52          	bottom	(2.238714e-03 -4.164254e-11 0.000000e+00)	(2.238726e-03 5.132448e-11 0.000000e+00)
2.53          	bottom	(2.315588e-03 -4.362935e-11 0.000000e+00)	(2.315600e-03 5.241143e-11 0.000000e+00)
2.54          	bottom	(2.392582e-03 -4.426594e-11 0.000000e+00)	(2.392593e-03 5.097745e-11 0.000000e+00)
2.55          	bottom	(2.469630e-03 -4.369119e-11 0.000000e+00)	(2.469642e-03 5.299611e-11 0.000000e+00)
2.56          	bottom	(2.546694e-03 -4.539136e-11 0.000000e+00)	(2.546706e-03 5.088353e-11 0.000000e+00)
2.57          	bottom	(2.623763e-03 -4.403054e-11 0.000000e+00)	(2.623775e-03 5.173800e-11 0.000000e+00)
2.58          	bottom	(2.700851e-03 -4.508777e-11 0.000000e+00)	(2.700862e-03 4.950399e-11 0.000000e+00)
2.59          	bottom	(2.777996e-03 -4.397438e-11 0.000000e+00)	(2.778007e-03 4.992684e-11 0.000000e+00)
2.6           	bottom	(2.855249e-03 -4.431604e-11 0.000000e+00)	(2.855260e-03 4.861397e-11 0.000000e+00)
2.61          	bottom	(2.932598e-03 -4.450103e-11 0.000000e+00)	(2.932609e-03 4.730993e-11 0.000000e+00)
2.62          	bottom	(3.009843e-03 -4.721552e-11 0.000000e+00)	(3.009854e-03 4.567388e-11 0.000000e+00)
2.63          	bottom	(3.086558e-03 -4.650298e-11 0.000000e+00)	(3.086568e-03 5.715609e-11 0.000000e+00)
2.64          	bottom	(3.162193e-03 -5.473099e-11 0.000000e+00)	(3.162204e-03 6.358406e-11 0.000000e+00)
2.65          	bottom	(3.236375e-03 -5.644767e-11 0.000000e+00)	(3.236386e-03 6.789538e-11 0.000000e+00)
2.66          	bottom	(3.309193e-03 -6.202127e-11 0.000000e+00)	(3.309204e-03 6.783822e-11 0.000000e+00)
2.67          	bottom	(3.380676e-03 -5.828553e-11 0.000000e+00)	(3.380687e-03 5.856920e-11 0.000000e+00)
2.68          	bottom	(3.451212e-03 -5.620902e-11 0.000000e+00)	(3.451222e-03 6.075522e-11 0.000000e+00)
2.69          	bottom	(3.521337e-03 -5.410370e-11 0.000000e+00)	(3.521346e-03 5.287619e-11 0.000000e+00)
2.7           	bottom	(3.591594e-03 -4.935001e-11 0.000000e+00)	(3.591603e-03 5.457345e-11 0.000000e+00)
2.71          	bottom	(3.662485e-03 -4.482274e-11 0.000000e+00)	(3.662494e-03 5.090036e-11 0.000000e+00)
2.72          	bottom	(3.734440e-03 -4.223185e-11 0.000000e+00)	(3.734449e-03 5.107781e-11 0.000000e+00)
2.73          	bottom	(3.807768e-03 -3.967280e-11 0.000000e+00)	(3.807776e-03 4.793440e-11 0.000000e+00)
2.74          	bottom	(3.882386e-03 -3.720124e-11 0.000000e+00)	(3.882393e-03 5.058691e-11 0.000000e+00)
2.75          	bottom	(3.957891e-03 -3.232971e-11 0.000000e+00)	(3.957893e-03 4.743564e-11 0.000000e+00)
2.76          	bottom	(4.033947e-03 -4.471940e-11 0.000000e+00)	(4.033948e-03 5.242693e-11 0.000000e+00)
2.77          	bottom	(4.110304e-03 -4.905091e-11 0.000000e+00)	(4.110305e-03 4.907956e-11 0.000000e+00)
2.78          	bottom	(4.186778e-03 -4.289444e-11 0.000000e+00)	(4.186779e-03 4.961602e-11 0.000000e+00)
2.79          	bottom	(4.263240e-03 -3.170593e-11 0.000000e+00)	(4.263240e-03 3.082648e-11 0.000000e+00)
2.8           	bottom	(4.339608e-03 -2.370439e-11 0.000000e+00)	(4.339609e-03 2.948143e-11 0.000000e+00)
2.81          	bottom	(4.415856e-03 -1.417878e-11 0.000000e+00)	(4.415856e-03 1.350628e-11 0.000000e+00)