/*--------------------------------*- C++ -*----------------------------------*\
  =========                 |
  \\      /  F ield         | OpenFOAM: The Open Source CFD Toolbox
   \\    /   O peration     | Website:  https://openfoam.org
    \\  /    A nd           | Version:  6
     \\/     M anipulation  |
\*---------------------------------------------------------------------------*/
FoamFile
{
    version     2.0;
    format      ascii;
    class       volScalarField;
    location    "19.44";
    object      p;
}
// * * * * * * * * * * * * * * * * * * * * * * * * * * * * * * * * * * * * * //

dimensions      [0 2 -2 0 0 0 0];

internalField   nonuniform List<scalar> 
1380
(
9.71106e-14
-6.01093e-10
-1.31374e-09
-1.73964e-09
-2.08813e-09
-2.37371e-09
-2.58853e-09
-2.73894e-09
-2.83798e-09
-2.89147e-09
-2.90048e-09
-2.86488e-09
-2.78472e-09
-2.65892e-09
-2.48478e-09
-2.25819e-09
-1.97308e-09
-1.61045e-09
-1.17451e-09
-4.09675e-10
-7.39832e-10
-1.13443e-09
-1.53226e-09
-1.60348e-09
-1.85275e-09
-2.11042e-09
-2.27446e-09
-2.38104e-09
-2.46544e-09
-2.52729e-09
-2.5591e-09
-2.55966e-09
-2.53133e-09
-2.47521e-09
-2.39049e-09
-2.27416e-09
-2.126e-09
-1.93515e-09
-1.66641e-09
-1.16598e-09
-2.10367e-09
-2.11806e-09
-2.04629e-09
-1.80125e-09
-1.86197e-09
-1.95221e-09
-1.98261e-09
-1.9867e-09
-1.99668e-09
-2.0091e-09
-2.01515e-09
-2.01429e-09
-2.00991e-09
-2.00501e-09
-2.00287e-09
-2.0091e-09
-2.02621e-09
-2.0749e-09
-2.10301e-09
-2.18654e-09
-2.35381e-09
-2.27828e-09
-2.16485e-09
-1.82168e-09
-1.82243e-09
-1.86111e-09
-1.85571e-09
-1.83274e-09
-1.82601e-09
-1.83408e-09
-1.84857e-09
-1.86756e-09
-1.89299e-09
-1.92865e-09
-1.97768e-09
-2.04303e-09
-2.11909e-09
-2.22736e-09
-2.29266e-09
-2.45395e-09
-2.50033e-09
-2.45634e-09
-2.38099e-09
-1.97043e-09
-1.90221e-09
-1.88415e-09
-1.83821e-09
-1.78081e-09
-1.74476e-09
-1.73119e-09
-1.73314e-09
-1.74883e-09
-1.77916e-09
-1.82785e-09
-1.89603e-09
-1.98629e-09
-2.08825e-09
-2.2304e-09
-2.29801e-09
-2.53058e-09
-2.54545e-09
-2.52562e-09
-2.5133e-09
-2.06289e-09
-1.94022e-09
-1.88515e-09
-1.82131e-09
-1.75117e-09
-1.70449e-09
-1.68391e-09
-1.68366e-09
-1.70138e-09
-1.73791e-09
-1.79437e-09
-1.8723e-09
-1.97263e-09
-2.07627e-09
-2.22192e-09
-2.26756e-09
-2.55198e-09
-2.54858e-09
-2.56368e-09
-2.63358e-09
-2.16443e-09
-1.9955e-09
-1.91082e-09
-1.83566e-09
-1.75715e-09
-1.70147e-09
-1.6728e-09
-1.66661e-09
-1.68002e-09
-1.71435e-09
-1.76938e-09
-1.84555e-09
-1.94412e-09
-2.03654e-09
-2.17387e-09
-2.18864e-09
-2.51683e-09
-2.53768e-09
-2.5875e-09
-2.74099e-09
-2.26275e-09
-2.04866e-09
-1.93544e-09
-1.85155e-09
-1.76835e-09
-1.70729e-09
-1.67351e-09
-1.66212e-09
-1.67288e-09
-1.70316e-09
-1.75438e-09
-1.82693e-09
-1.9204e-09
-1.99261e-09
-2.1167e-09
-2.09741e-09
-2.46321e-09
-2.51956e-09
-2.60207e-09
-2.84196e-09
-2.36288e-09
-2.1046e-09
-1.96415e-09
-1.87259e-09
-1.78608e-09
-1.72102e-09
-1.68289e-09
-1.66786e-09
-1.67304e-09
-1.69797e-09
-1.74371e-09
-1.80935e-09
-1.89338e-09
-1.94365e-09
-2.05214e-09
-1.98895e-09
-2.39788e-09
-2.48308e-09
-2.61003e-09
-2.94139e-09
-2.46581e-09
-2.16262e-09
-1.99491e-09
-1.89544e-09
-1.80589e-09
-1.73772e-09
-1.69524e-09
-1.67724e-09
-1.67755e-09
-1.69771e-09
-1.73802e-09
-1.79696e-09
-1.87233e-09
-1.90361e-09
-1.99436e-09
-1.86555e-09
-2.30835e-09
-2.43181e-09
-2.61185e-09
-3.03423e-09
-2.56513e-09
-2.21825e-09
-2.02469e-09
-1.91751e-09
-1.82531e-09
-1.7549e-09
-1.71029e-09
-1.68711e-09
-1.6842e-09
-1.70067e-09
-1.73597e-09
-1.78878e-09
-1.8564e-09
-1.87012e-09
-1.94118e-09
-1.7539e-09
-2.20712e-09
-2.38861e-09
-2.61258e-09
-3.11956e-09
-2.66027e-09
-2.27217e-09
-2.0543e-09
-1.93936e-09
-1.84459e-09
-1.77104e-09
-1.72291e-09
-1.69725e-09
-1.69175e-09
-1.70429e-09
-1.73459e-09
-1.78147e-09
-1.8409e-09
-1.83327e-09
-1.88139e-09
-1.64844e-09
-2.11181e-09
-2.34838e-09
-2.61144e-09
-3.19776e-09
-2.75076e-09
-2.32426e-09
-2.084e-09
-1.96148e-09
-1.86356e-09
-1.78719e-09
-1.73466e-09
-1.70692e-09
-1.69889e-09
-1.7076e-09
-1.73302e-09
-1.77392e-09
-1.82472e-09
-1.79427e-09
-1.82185e-09
-1.54836e-09
-2.02567e-09
-2.3183e-09
-2.6049e-09
-3.26198e-09
-2.83128e-09
-2.37148e-09
-2.11235e-09
-1.98332e-09
-1.87886e-09
-1.79815e-09
-1.74588e-09
-1.71719e-09
-1.70644e-09
-1.71152e-09
-1.7326e-09
-1.76816e-09
-1.81106e-09
-1.75913e-09
-1.7688e-09
-1.45917e-09
-1.94961e-09
-2.29617e-09
-2.6029e-09
-3.3191e-09
-2.90419e-09
-2.41455e-09
-2.13867e-09
-2.00166e-09
-1.89173e-09
-1.81008e-09
-1.75719e-09
-1.72681e-09
-1.7135e-09
-1.71532e-09
-1.73236e-09
-1.76274e-09
-1.79794e-09
-1.72601e-09
-1.71968e-09
-1.37555e-09
-1.87575e-09
-2.25779e-09
-2.6073e-09
-3.38439e-09
-2.98115e-09
-2.45988e-09
-2.16425e-09
-2.01932e-09
-1.90723e-09
-1.8242e-09
-1.76948e-09
-1.737e-09
-1.72115e-09
-1.71966e-09
-1.73251e-09
-1.7576e-09
-1.7851e-09
-1.69432e-09
-1.67061e-09
-1.29068e-09
-1.79126e-09
-2.20876e-09
-2.60748e-09
-3.4477e-09
-3.05634e-09
-2.50364e-09
-2.18772e-09
-2.03566e-09
-1.92394e-09
-1.84e-09
-1.78317e-09
-1.74845e-09
-1.73002e-09
-1.7252e-09
-1.73386e-09
-1.75384e-09
-1.77426e-09
-1.66645e-09
-1.6255e-09
-1.21255e-09
-1.70839e-09
-2.16161e-09
-2.59831e-09
-3.49642e-09
-3.11983e-09
-2.53998e-09
-2.2074e-09
-2.05181e-09
-1.94159e-09
-1.85712e-09
-1.79849e-09
-1.7617e-09
-1.7407e-09
-1.73245e-09
-1.73681e-09
-1.75161e-09
-1.76518e-09
-1.64198e-09
-1.58577e-09
-1.14603e-09
-1.63657e-09
-2.11632e-09
-2.59512e-09
-3.54294e-09
-3.17979e-09
-2.57691e-09
-2.23095e-09
-2.07375e-09
-1.96395e-09
-1.8775e-09
-1.81597e-09
-1.7761e-09
-1.75142e-09
-1.73858e-09
-1.7374e-09
-1.74565e-09
-1.75094e-09
-1.61195e-09
-1.54087e-09
-1.07627e-09
-1.56027e-09
-2.07397e-09
-2.58662e-09
-3.57097e-09
-3.21462e-09
-2.59461e-09
-2.24391e-09
-2.09195e-09
-1.9856e-09
-1.89976e-09
-1.83812e-09
-1.7977e-09
-1.77137e-09
-1.75525e-09
-1.74891e-09
-1.74982e-09
-1.74481e-09
-1.58815e-09
-1.50138e-09
-1.00996e-09
-1.48928e-09
-2.02771e-09
-2.53949e-09
-3.55509e-09
-3.20237e-09
-2.57256e-09
-2.22764e-09
-2.08724e-09
-1.98907e-09
-1.90961e-09
-1.85414e-09
-1.81948e-09
-1.79781e-09
-1.78477e-09
-1.77945e-09
-1.77853e-09
-1.76751e-09
-1.59675e-09
-1.50026e-09
-9.94671e-10
-1.45424e-09
-1.59515e-09
-2.18811e-09
-3.36383e-09
-3.09258e-09
-2.51521e-09
-2.23053e-09
-2.14042e-09
-2.07721e-09
-2.02106e-09
-1.98074e-09
-1.95542e-09
-1.93888e-09
-1.92782e-09
-1.92189e-09
-1.91723e-09
-1.89685e-09
-1.70447e-09
-1.57486e-09
-9.71145e-10
-1.19302e-09
-1.38617e-09
-2.03988e-09
-3.41898e-09
-3.18725e-09
-2.59373e-09
-2.28864e-09
-2.19427e-09
-2.13691e-09
-2.0845e-09
-2.04389e-09
-2.0149e-09
-1.99152e-09
-1.97038e-09
-1.95129e-09
-1.93021e-09
-1.89029e-09
-1.67145e-09
-1.52568e-09
-8.31171e-10
-1.03797e-09
-2.17234e-09
-2.63611e-09
-3.73403e-09
-3.46584e-09
-2.82481e-09
-2.42102e-09
-2.22372e-09
-2.07157e-09
-1.93779e-09
-1.83073e-09
-1.75055e-09
-1.69071e-09
-1.64685e-09
-1.61812e-09
-1.60075e-09
-1.58016e-09
-1.39728e-09
-1.32916e-09
-8.05379e-10
-1.45386e-09
-2.86383e-09
-3.06825e-09
-3.77006e-09
-3.18523e-09
-2.35286e-09
-1.91089e-09
-1.72595e-09
-1.60544e-09
-1.52089e-09
-1.47612e-09
-1.46639e-09
-1.48291e-09
-1.52203e-09
-1.58504e-09
-1.67184e-09
-1.77e-09
-1.72536e-09
-1.80829e-09
-1.48096e-09
-2.19607e-09
-1.93047e-09
-2.35992e-09
-3.44094e-09
-3.16311e-09
-2.53142e-09
-2.21127e-09
-2.09523e-09
-2.0048e-09
-1.92365e-09
-1.86516e-09
-1.82931e-09
-1.80857e-09
-1.79855e-09
-1.79864e-09
-1.80597e-09
-1.80541e-09
-1.64319e-09
-1.59319e-09
-1.08453e-09
-1.45339e-09
-1.76037e-09
-2.22754e-09
-3.34715e-09
-3.10666e-09
-2.49776e-09
-2.20142e-09
-2.10851e-09
-2.03664e-09
-1.96906e-09
-1.92057e-09
-1.89202e-09
-1.87602e-09
-1.86805e-09
-1.86727e-09
-1.87022e-09
-1.86202e-09
-1.68989e-09
-1.62401e-09
-1.06681e-09
-1.33611e-09
-1.5459e-09
-1.99723e-09
-3.15058e-09
-2.97678e-09
-2.43002e-09
-2.18609e-09
-2.13747e-09
-2.10103e-09
-2.05985e-09
-2.02944e-09
-2.0113e-09
-1.99846e-09
-1.98681e-09
-1.97607e-09
-1.96338e-09
-1.9348e-09
-1.74031e-09
-1.64685e-09
-1.03877e-09
-1.21365e-09
-1.35574e-09
-1.81522e-09
-3.00039e-09
-2.88168e-09
-2.38253e-09
-2.17592e-09
-2.15724e-09
-2.14469e-09
-2.1219e-09
-2.10498e-09
-2.09584e-09
-2.08772e-09
-2.07657e-09
-2.0621e-09
-2.04152e-09
-2.00141e-09
-1.79454e-09
-1.68075e-09
-1.02395e-09
-1.10116e-09
-1.1558e-09
-1.62701e-09
-2.84109e-09
-2.77928e-09
-2.3315e-09
-2.16425e-09
-2.17709e-09
-2.19027e-09
-2.18773e-09
-2.18584e-09
-2.18673e-09
-2.18381e-09
-2.17304e-09
-2.15417e-09
-2.12447e-09
-2.07109e-09
-1.85041e-09
-1.71462e-09
-1.0134e-09
-9.83976e-10
-9.69525e-10
-1.45246e-09
-2.69009e-09
-2.68475e-09
-2.28707e-09
-2.15547e-09
-2.19593e-09
-2.23173e-09
-2.24689e-09
-2.25789e-09
-2.26718e-09
-2.26841e-09
-2.25767e-09
-2.23467e-09
-2.19671e-09
-2.13128e-09
-1.89888e-09
-1.74612e-09
-1.02203e-09
-8.83491e-10
-8.14382e-10
-1.30373e-09
-2.55317e-09
-2.60089e-09
-2.24876e-09
-2.14679e-09
-2.20978e-09
-2.2646e-09
-2.2949e-09
-2.31697e-09
-2.33347e-09
-2.33831e-09
-2.32765e-09
-2.30117e-09
-2.2562e-09
-2.18047e-09
-1.93896e-09
-1.77417e-09
-1.04661e-09
-8.07735e-10
-7.16859e-10
-1.20511e-09
-2.44694e-09
-2.53897e-09
-2.2223e-09
-2.1398e-09
-2.2165e-09
-2.2838e-09
-2.32448e-09
-2.35422e-09
-2.37582e-09
-2.38346e-09
-2.37339e-09
-2.34528e-09
-2.29651e-09
-2.21507e-09
-1.97032e-09
-1.79785e-09
-1.07302e-09
-7.62188e-10
-7.01124e-10
-1.1746e-09
-2.38284e-09
-2.50586e-09
-2.21029e-09
-2.13414e-09
-2.21301e-09
-2.28422e-09
-2.32904e-09
-2.36201e-09
-2.38595e-09
-2.39533e-09
-2.38653e-09
-2.35923e-09
-2.31088e-09
-2.22976e-09
-1.98931e-09
-1.81804e-09
-1.10865e-09
-7.6463e-10
-7.7186e-10
-1.22029e-09
-2.36823e-09
-2.50669e-09
-2.21624e-09
-2.13244e-09
-2.20052e-09
-2.26575e-09
-2.30746e-09
-2.33846e-09
-2.36134e-09
-2.37086e-09
-2.36355e-09
-2.33907e-09
-2.29494e-09
-2.21953e-09
-1.98984e-09
-1.82783e-09
-1.15132e-09
-8.1411e-10
-9.21728e-10
-1.32922e-09
-2.39154e-09
-2.5335e-09
-2.23584e-09
-2.13322e-09
-2.17932e-09
-2.23003e-09
-2.26253e-09
-2.28719e-09
-2.30615e-09
-2.31453e-09
-2.30899e-09
-2.28917e-09
-2.25261e-09
-2.18768e-09
-1.97428e-09
-1.82854e-09
-1.20095e-09
-9.09076e-10
-1.1219e-09
-1.47039e-09
-2.43145e-09
-2.57265e-09
-2.26059e-09
-2.13347e-09
-2.15178e-09
-2.18279e-09
-2.20262e-09
-2.2187e-09
-2.23243e-09
-2.23926e-09
-2.2361e-09
-2.2225e-09
-2.19606e-09
-2.14506e-09
-1.95179e-09
-1.82717e-09
-1.26039e-09
-1.03921e-09
-1.33032e-09
-1.61782e-09
-2.47547e-09
-2.61713e-09
-2.28777e-09
-2.13664e-09
-2.12741e-09
-2.13605e-09
-2.14158e-09
-2.14812e-09
-2.15583e-09
-2.16043e-09
-2.15904e-09
-2.15121e-09
-2.1346e-09
-2.0974e-09
-1.92403e-09
-1.82029e-09
-1.3176e-09
-1.17259e-09
-1.51395e-09
-1.74797e-09
-2.50855e-09
-2.6561e-09
-2.31188e-09
-2.1407e-09
-2.10792e-09
-2.09536e-09
-2.08753e-09
-2.0856e-09
-2.08822e-09
-2.09115e-09
-2.09168e-09
-2.08922e-09
-2.08146e-09
-2.0564e-09
-1.90085e-09
-1.81429e-09
-1.37184e-09
-1.2895e-09
-1.62083e-09
-1.86419e-09
-2.56046e-09
-2.70039e-09
-2.34804e-09
-2.17932e-09
-2.13218e-09
-2.09838e-09
-2.07203e-09
-2.05548e-09
-2.04653e-09
-2.04078e-09
-2.03579e-09
-2.03085e-09
-2.02274e-09
-1.9966e-09
-1.85511e-09
-1.76534e-09
-1.39711e-09
-1.36041e-09
-1.67017e-09
-1.92905e-09
-2.54574e-09
-2.689e-09
-2.34554e-09
-2.1691e-09
-2.10356e-09
-2.06159e-09
-2.03348e-09
-2.01759e-09
-2.01048e-09
-2.00792e-09
-2.00761e-09
-2.00919e-09
-2.00939e-09
-1.99216e-09
-1.88463e-09
-1.78443e-09
-1.49735e-09
-1.44822e-09
-1.81973e-09
-1.94285e-09
-2.46547e-09
-2.6763e-09
-2.32835e-09
-2.12833e-09
-2.06363e-09
-2.02728e-09
-2.0047e-09
-1.99355e-09
-1.99106e-09
-1.99347e-09
-1.99883e-09
-2.00696e-09
-2.01595e-09
-2.01472e-09
-1.89861e-09
-1.83504e-09
-1.53055e-09
-1.49816e-09
-1.84042e-09
-1.96027e-09
-2.44357e-09
-2.69305e-09
-2.36659e-09
-2.16558e-09
-2.09279e-09
-2.04867e-09
-2.01832e-09
-1.99979e-09
-1.99066e-09
-1.98704e-09
-1.98684e-09
-1.98965e-09
-1.9932e-09
-1.98693e-09
-1.87114e-09
-1.80443e-09
-1.53128e-09
-1.49871e-09
-1.85228e-09
-1.96086e-09
-2.39397e-09
-2.67534e-09
-2.36702e-09
-2.16906e-09
-2.09506e-09
-2.05075e-09
-2.0203e-09
-2.00164e-09
-1.99253e-09
-1.98908e-09
-1.98885e-09
-1.99157e-09
-1.99554e-09
-1.99082e-09
-1.8824e-09
-1.81404e-09
-1.56895e-09
-1.51319e-09
-1.8337e-09
-1.93953e-09
-2.33545e-09
-2.6533e-09
-2.37247e-09
-2.18555e-09
-2.11566e-09
-2.07372e-09
-2.04339e-09
-2.02308e-09
-2.01117e-09
-2.00408e-09
-1.99957e-09
-1.99739e-09
-1.99637e-09
-1.98783e-09
-1.88207e-09
-1.8082e-09
-1.58654e-09
-1.50294e-09
-1.86402e-09
-1.94798e-09
-2.29417e-09
-2.57932e-09
-2.32602e-09
-2.15148e-09
-2.08524e-09
-2.0463e-09
-2.02066e-09
-2.00637e-09
-2.00124e-09
-2.00143e-09
-2.00441e-09
-2.00947e-09
-2.01512e-09
-2.01293e-09
-1.91765e-09
-1.85342e-09
-1.64874e-09
-1.56776e-09
-1.83516e-09
-1.91995e-09
-2.249e-09
-2.56348e-09
-2.33968e-09
-2.17586e-09
-2.11129e-09
-2.07177e-09
-2.04445e-09
-2.02695e-09
-2.01715e-09
-2.01167e-09
-2.00838e-09
-2.00699e-09
-2.00668e-09
-2.00038e-09
-1.90668e-09
-1.83915e-09
-1.64832e-09
-1.54983e-09
-1.82064e-09
-1.89555e-09
-2.18109e-09
-2.55572e-09
-2.33212e-09
-2.16818e-09
-2.10522e-09
-2.06865e-09
-2.04397e-09
-2.02872e-09
-2.02099e-09
-2.01742e-09
-2.01576e-09
-2.01564e-09
-2.01661e-09
-2.01305e-09
-1.9295e-09
-1.85353e-09
-1.69045e-09
-1.53933e-09
-1.81134e-09
-1.87976e-09
-2.14242e-09
-2.52616e-09
-2.31774e-09
-2.16132e-09
-2.10142e-09
-2.0671e-09
-2.04439e-09
-2.03068e-09
-2.02405e-09
-2.0212e-09
-2.01997e-09
-2.01999e-09
-2.02103e-09
-2.0183e-09
-1.94011e-09
-1.86416e-09
-1.71222e-09
-1.54615e-09
-1.80159e-09
-1.86744e-09
-2.11422e-09
-2.50054e-09
-2.30477e-09
-2.15554e-09
-2.09846e-09
-2.06582e-09
-2.04453e-09
-2.03182e-09
-2.02572e-09
-2.02305e-09
-2.02171e-09
-2.02137e-09
-2.02188e-09
-2.01899e-09
-1.94397e-09
-1.86771e-09
-1.72275e-09
-1.54789e-09
-1.79651e-09
-1.86125e-09
-2.09913e-09
-2.48038e-09
-2.29283e-09
-2.14939e-09
-2.0946e-09
-2.06321e-09
-2.04308e-09
-2.03122e-09
-2.02557e-09
-2.02304e-09
-2.02162e-09
-2.02099e-09
-2.02107e-09
-2.01786e-09
-1.94476e-09
-1.86907e-09
-1.72786e-09
-1.55128e-09
-1.79548e-09
-1.86082e-09
-2.09759e-09
-2.46616e-09
-2.28241e-09
-2.14338e-09
-2.09048e-09
-2.05996e-09
-2.04072e-09
-2.02956e-09
-2.02428e-09
-2.02188e-09
-2.02046e-09
-2.0197e-09
-2.01946e-09
-2.0157e-09
-1.94288e-09
-1.86855e-09
-1.72727e-09
-1.55589e-09
-1.79673e-09
-1.86458e-09
-2.1081e-09
-2.45615e-09
-2.272e-09
-2.13621e-09
-2.08503e-09
-2.05523e-09
-2.03671e-09
-2.0261e-09
-2.02111e-09
-2.01882e-09
-2.01737e-09
-2.01649e-09
-2.0159e-09
-2.01115e-09
-1.93691e-09
-1.86498e-09
-1.7198e-09
-1.56031e-09
-1.80153e-09
-1.87315e-09
-2.13075e-09
-2.45047e-09
-2.26242e-09
-2.12907e-09
-2.07977e-09
-2.05087e-09
-2.03297e-09
-2.02282e-09
-2.01805e-09
-2.01581e-09
-2.01434e-09
-2.01337e-09
-2.01244e-09
-2.00645e-09
-1.92949e-09
-1.86077e-09
-1.7073e-09
-1.56648e-09
-1.81087e-09
-1.88649e-09
-2.16401e-09
-2.44742e-09
-2.25286e-09
-2.12146e-09
-2.07447e-09
-2.04683e-09
-2.02947e-09
-2.01973e-09
-2.01524e-09
-2.01317e-09
-2.01186e-09
-2.01104e-09
-2.00999e-09
-2.00289e-09
-1.92285e-09
-1.85875e-09
-1.69333e-09
-1.57735e-09
-1.82174e-09
-1.90132e-09
-2.20294e-09
-2.44265e-09
-2.24108e-09
-2.11226e-09
-2.06843e-09
-2.0427e-09
-2.02592e-09
-2.01656e-09
-2.01232e-09
-2.01041e-09
-2.00923e-09
-2.00855e-09
-2.00741e-09
-1.99924e-09
-1.91632e-09
-1.85815e-09
-1.67868e-09
-1.59238e-09
-1.83624e-09
-1.91872e-09
-2.24507e-09
-2.43365e-09
-2.22658e-09
-2.10209e-09
-2.0622e-09
-2.03885e-09
-2.02301e-09
-2.01408e-09
-2.01007e-09
-2.00832e-09
-2.00731e-09
-2.00685e-09
-2.00579e-09
-1.99709e-09
-1.91299e-09
-1.86283e-09
-1.66976e-09
-1.6167e-09
-1.85349e-09
-1.93678e-09
-2.28413e-09
-2.41557e-09
-2.20776e-09
-2.091e-09
-2.05645e-09
-2.03608e-09
-2.02166e-09
-2.01331e-09
-2.00957e-09
-2.00797e-09
-2.00712e-09
-2.00689e-09
-2.00597e-09
-1.99731e-09
-1.915e-09
-1.87453e-09
-1.67087e-09
-1.65267e-09
-1.87519e-09
-1.95559e-09
-2.31346e-09
-2.38353e-09
-2.1831e-09
-2.07872e-09
-2.05111e-09
-2.0343e-09
-2.02171e-09
-2.01417e-09
-2.01079e-09
-2.00939e-09
-2.00874e-09
-2.00876e-09
-2.00821e-09
-2.00064e-09
-1.92447e-09
-1.8956e-09
-1.6883e-09
-1.70436e-09
-1.89525e-09
-1.97111e-09
-2.32428e-09
-2.3303e-09
-2.14785e-09
-2.06179e-09
-2.04331e-09
-2.03104e-09
-2.02049e-09
-2.01387e-09
-2.01091e-09
-2.00975e-09
-2.00928e-09
-2.00949e-09
-2.00931e-09
-2.00361e-09
-1.93823e-09
-1.92182e-09
-1.72125e-09
-1.76733e-09
-1.90722e-09
-1.97746e-09
-2.3106e-09
-2.25486e-09
-2.10222e-09
-2.04052e-09
-2.03297e-09
-2.02566e-09
-2.01722e-09
-2.01156e-09
-2.00914e-09
-2.00832e-09
-2.00802e-09
-2.00828e-09
-2.00833e-09
-2.00485e-09
-1.95402e-09
-1.94952e-09
-1.76848e-09
-1.83721e-09
-1.91815e-09
-1.9865e-09
-2.27688e-09
-2.16357e-09
-2.05131e-09
-2.01822e-09
-2.02181e-09
-2.0188e-09
-2.01234e-09
-2.00797e-09
-2.00623e-09
-2.00563e-09
-2.00539e-09
-2.00562e-09
-2.00578e-09
-2.00438e-09
-1.96973e-09
-1.97464e-09
-1.82567e-09
-1.90796e-09
-1.93024e-09
-2.00492e-09
-2.23062e-09
-2.06637e-09
-2.00111e-09
-1.99896e-09
-2.01277e-09
-2.01221e-09
-2.00702e-09
-2.00384e-09
-2.00276e-09
-2.00236e-09
-2.0021e-09
-2.00213e-09
-2.00213e-09
-2.00205e-09
-1.98222e-09
-1.99232e-09
-1.88466e-09
-1.97047e-09
-1.93945e-09
-2.04482e-09
-2.17726e-09
-1.96844e-09
-1.95471e-09
-1.98967e-09
-2.01225e-09
-2.01072e-09
-2.00537e-09
-2.00298e-09
-2.00242e-09
-2.00205e-09
-2.00159e-09
-2.00126e-09
-2.0011e-09
-2.00081e-09
-1.99419e-09
-1.9998e-09
-1.94514e-09
-2.01296e-09
-1.96888e-09
-2.10674e-09
-2.12369e-09
-1.88252e-09
-1.91391e-09
-1.97893e-09
-2.0091e-09
-2.00723e-09
-2.00149e-09
-1.99965e-09
-1.99986e-09
-2.00011e-09
-2.00008e-09
-1.99998e-09
-1.99993e-09
-1.99986e-09
-1.99897e-09
-2.00078e-09
-1.98612e-09
-2.02625e-09
-1.9789e-09
-2.16243e-09
-2.13431e-09
-1.84663e-09
-1.89046e-09
-1.98229e-09
-2.01271e-09
-2.00221e-09
-1.9928e-09
-1.99279e-09
-1.99473e-09
-1.9952e-09
-1.99483e-09
-1.99468e-09
-1.99477e-09
-1.99509e-09
-1.99474e-09
-1.99645e-09
-1.99173e-09
-2.0122e-09
-1.99746e-09
-2.18588e-09
-2.11104e-09
-1.8358e-09
-1.88318e-09
-1.97493e-09
-2.01472e-09
-2.01082e-09
-2.00195e-09
-1.99933e-09
-1.99998e-09
-2.00054e-09
-2.00042e-09
-2.00009e-09
-1.99983e-09
-1.99967e-09
-1.99956e-09
-1.99953e-09
-1.99945e-09
-2.00101e-09
-2.00426e-09
-2.191e-09
-2.11155e-09
-1.83835e-09
-1.88608e-09
-1.97682e-09
-2.01727e-09
-2.01459e-09
-2.00616e-09
-2.00347e-09
-2.00407e-09
-2.00477e-09
-2.00488e-09
-2.00476e-09
-2.00468e-09
-2.00467e-09
-2.00467e-09
-2.00469e-09
-2.0047e-09
-2.00522e-09
-2.00562e-09
-2.19415e-09
-2.11511e-09
-1.83993e-09
-1.88671e-09
-1.97744e-09
-2.01814e-09
-2.01561e-09
-2.00721e-09
-2.00452e-09
-2.00513e-09
-2.00586e-09
-2.006e-09
-2.00592e-09
-2.00586e-09
-2.00586e-09
-2.00588e-09
-2.0059e-09
-2.0059e-09
-2.00639e-09
)
;

boundaryField
{
    top
    {
        type            symmetryPlane;
    }
    bottom
    {
        type            zeroGradient;
    }
    inlet
    {
        type            cyclic;
    }
    outlet
    {
        type            cyclic;
    }
    frontAndBack
    {
        type            empty;
    }
}


// ************************************************************************* //
