/*--------------------------------*- C++ -*----------------------------------*\
  =========                 |
  \\      /  F ield         | OpenFOAM: The Open Source CFD Toolbox
   \\    /   O peration     | Website:  https://openfoam.org
    \\  /    A nd           | Version:  6
     \\/     M anipulation  |
\*---------------------------------------------------------------------------*/
FoamFile
{
    version     2.0;
    format      ascii;
    class       surfaceScalarField;
    location    "19.44";
    object      phi;
}
// * * * * * * * * * * * * * * * * * * * * * * * * * * * * * * * * * * * * * //

dimensions      [0 3 -1 0 0 0 0];

internalField   nonuniform List<scalar> 
2671
(
1.62389e-05
-2.06337e-15
1.62389e-05
-1.16288e-15
1.62389e-05
-7.88297e-17
1.62389e-05
2.72882e-17
1.62389e-05
1.59437e-16
1.62389e-05
2.63259e-16
1.62389e-05
2.57884e-16
1.62389e-05
1.68767e-16
1.62389e-05
3.77427e-17
1.62389e-05
-1.15181e-16
1.62389e-05
-2.69553e-16
1.62389e-05
-4.15012e-16
1.62389e-05
-5.20804e-16
1.62389e-05
-5.70511e-16
1.62389e-05
-5.54362e-16
1.62389e-05
-4.03443e-16
1.62389e-05
-7.54298e-17
1.62389e-05
3.59062e-16
1.62389e-05
3.07561e-15
1.87995e-15
1.62756e-05
-5.10626e-15
1.62756e-05
-3.9289e-15
1.62756e-05
-2.19411e-15
1.62756e-05
-1.58475e-15
1.62756e-05
-1.13065e-15
1.62756e-05
-7.00725e-16
1.62756e-05
-3.95567e-16
1.62756e-05
-1.93392e-16
1.62756e-05
-7.46691e-17
1.62756e-05
-1.27945e-17
1.62756e-05
2.79414e-17
1.62756e-05
6.36758e-17
1.62756e-05
1.21618e-16
1.62756e-05
2.28466e-16
1.62756e-05
4.10776e-16
1.62756e-05
7.03886e-16
1.62756e-05
1.18464e-15
1.62756e-05
2.06917e-15
1.62756e-05
6.67727e-15
3.83401e-15
1.77474e-05
-5.53844e-15
1.77474e-05
-4.5947e-15
1.77474e-05
-2.96583e-15
1.77474e-05
-2.18343e-15
1.77474e-05
-1.66973e-15
1.77474e-05
-1.07324e-15
1.77474e-05
-5.93936e-16
1.77474e-05
-2.13998e-16
1.77474e-05
7.61929e-17
1.77474e-05
2.96039e-16
1.77474e-05
4.73203e-16
1.77474e-05
6.16635e-16
1.77474e-05
7.51206e-16
1.77474e-05
8.79865e-16
1.77474e-05
1.01377e-15
1.77474e-05
1.18317e-15
1.77474e-05
1.43783e-15
1.77474e-05
2.32058e-15
1.77474e-05
6.42251e-15
3.36195e-15
1.87906e-05
-5.2352e-15
1.87906e-05
-4.64358e-15
1.87906e-05
-3.2542e-15
1.87906e-05
-2.46127e-15
1.87906e-05
-1.89993e-15
1.87906e-05
-1.24227e-15
1.87906e-05
-6.67069e-16
1.87906e-05
-1.83253e-16
1.87906e-05
2.08798e-16
1.87906e-05
5.16757e-16
1.87906e-05
7.55211e-16
1.87906e-05
9.33825e-16
1.87906e-05
1.07411e-15
1.87906e-05
1.16761e-15
1.87906e-05
1.2174e-15
1.87906e-05
1.25098e-15
1.87906e-05
1.32877e-15
1.87906e-05
2.13577e-15
1.87906e-05
5.94019e-15
3.05698e-15
1.96003e-05
-4.77128e-15
1.96003e-05
-4.43522e-15
1.96003e-05
-3.16679e-15
1.96003e-05
-2.35841e-15
1.96003e-05
-1.76259e-15
1.96003e-05
-1.07654e-15
1.96003e-05
-4.70788e-16
1.96003e-05
4.00571e-17
1.96003e-05
4.5074e-16
1.96003e-05
7.65593e-16
1.96003e-05
9.92163e-16
1.96003e-05
1.13861e-15
1.96003e-05
1.19827e-15
1.96003e-05
1.18934e-15
1.96003e-05
1.11403e-15
1.96003e-05
9.85388e-16
1.96003e-05
8.87511e-16
1.96003e-05
1.60142e-15
1.96003e-05
5.14372e-15
2.53442e-15
2.02631e-05
-4.28132e-15
2.02631e-05
-4.03428e-15
2.02631e-05
-2.87076e-15
2.02631e-05
-2.07345e-15
2.02631e-05
-1.47756e-15
2.02631e-05
-7.95012e-16
2.02631e-05
-1.99246e-16
2.02631e-05
2.97129e-16
2.02631e-05
6.86344e-16
2.02631e-05
9.69704e-16
2.02631e-05
1.1526e-15
2.02631e-05
1.22543e-15
2.02631e-05
1.19741e-15
2.02631e-05
1.0859e-15
2.02631e-05
8.85854e-16
2.02631e-05
6.08615e-16
2.02631e-05
3.70371e-16
2.02631e-05
9.83742e-16
2.02631e-05
4.26007e-15
2.00811e-15
2.08247e-05
-3.72732e-15
2.08247e-05
-3.54839e-15
2.08247e-05
-2.47518e-15
2.08247e-05
-1.69864e-15
2.08247e-05
-1.11566e-15
2.08247e-05
-4.56757e-16
2.08247e-05
1.06422e-16
2.08247e-05
5.65263e-16
2.08247e-05
9.10211e-16
2.08247e-05
1.14194e-15
2.08247e-05
1.25454e-15
2.08247e-05
1.23919e-15
2.08247e-05
1.13323e-15
2.08247e-05
9.19942e-16
2.08247e-05
5.97844e-16
2.08247e-05
1.91028e-16
2.08247e-05
-1.67076e-16
2.08247e-05
3.10145e-16
2.08247e-05
3.32482e-15
1.49411e-15
2.13124e-05
-3.09267e-15
2.13124e-05
-2.988e-15
2.13124e-05
-2.01343e-15
2.13124e-05
-1.27305e-15
2.13124e-05
-7.16827e-16
2.13124e-05
-1.03872e-16
2.13124e-05
4.08211e-16
2.13124e-05
8.127e-16
2.13124e-05
1.0993e-15
2.13124e-05
1.26743e-15
2.13124e-05
1.29128e-15
2.13124e-05
1.21016e-15
2.13124e-05
1.02247e-15
2.13124e-05
7.1266e-16
2.13124e-05
2.86663e-16
2.13124e-05
-2.296e-16
2.13124e-05
-7.02371e-16
2.13124e-05
-3.63329e-16
2.13124e-05
2.36956e-15
1.00237e-15
2.17435e-05
-2.39302e-15
2.17435e-05
-2.3651e-15
2.17435e-05
-1.50194e-15
2.17435e-05
-8.14873e-16
2.17435e-05
-2.99288e-16
2.17435e-05
2.50657e-16
2.17435e-05
6.98155e-16
2.17435e-05
1.0375e-15
2.17435e-05
1.25824e-15
2.17435e-05
1.34599e-15
2.17435e-05
1.29696e-15
2.17435e-05
1.15411e-15
2.17435e-05
8.84952e-16
2.17435e-05
4.92356e-16
2.17435e-05
-1.92269e-17
2.17435e-05
-6.25118e-16
2.17435e-05
-1.219e-15
2.17435e-05
-1.01802e-15
2.17435e-05
1.31933e-15
5.17009e-16
2.21298e-05
-1.72305e-15
2.21298e-05
-1.70285e-15
2.21298e-05
-9.60981e-16
2.21298e-05
-3.43668e-16
2.21298e-05
1.18668e-16
2.21298e-05
5.93775e-16
2.21298e-05
9.66381e-16
2.21298e-05
1.23332e-15
2.21298e-05
1.38088e-15
2.21298e-05
1.38398e-15
2.21298e-05
1.28099e-15
2.21298e-05
1.06582e-15
2.21298e-05
7.25836e-16
2.21298e-05
2.62849e-16
2.21298e-05
-3.18846e-16
2.21298e-05
-9.97441e-16
2.21298e-05
-1.69692e-15
2.21298e-05
-1.6367e-15
2.21298e-05
2.43336e-16
1.24272e-16
2.24796e-05
-1.10338e-15
2.24796e-05
-1.02162e-15
2.24796e-05
-4.05133e-16
2.24796e-05
1.30237e-16
2.24796e-05
5.29474e-16
2.24796e-05
9.21666e-16
2.24796e-05
1.2122e-15
2.24796e-05
1.40125e-15
2.24796e-05
1.46308e-15
2.24796e-05
1.40134e-15
2.24796e-05
1.23844e-15
2.24796e-05
9.55459e-16
2.24796e-05
5.52007e-16
2.24796e-05
2.84302e-17
2.24796e-05
-6.11091e-16
2.24796e-05
-1.34675e-15
2.24796e-05
-2.11626e-15
2.24796e-05
-2.21399e-15
2.24796e-05
-7.78025e-16
-2.37686e-16
2.27989e-05
-4.5998e-16
2.27989e-05
-3.22025e-16
2.27989e-05
1.60867e-16
2.27989e-05
6.03791e-16
2.27989e-05
9.30839e-16
2.27989e-05
1.23461e-15
2.27989e-05
1.438e-15
2.27989e-05
1.54148e-15
2.27989e-05
1.52363e-15
2.27989e-05
1.40371e-15
2.27989e-05
1.17436e-15
2.27989e-05
8.30374e-16
2.27989e-05
3.70981e-16
2.27989e-05
-2.03838e-16
2.27989e-05
-8.90114e-16
2.27989e-05
-1.66921e-15
2.27989e-05
-2.48e-15
2.27989e-05
-2.76803e-15
2.27989e-05
-1.78469e-15
-6.35114e-16
2.30925e-05
2.07905e-16
2.30925e-05
3.89436e-16
2.30925e-05
7.27813e-16
2.30925e-05
1.0708e-15
2.30925e-05
1.31782e-15
2.30925e-05
1.52916e-15
2.30925e-05
1.64144e-15
2.30925e-05
1.65699e-15
2.30925e-05
1.57131e-15
2.30925e-05
1.38663e-15
2.30925e-05
1.09561e-15
2.30925e-05
6.96318e-16
2.30925e-05
1.88017e-16
2.30925e-05
-4.29245e-16
2.30925e-05
-1.15235e-15
2.30925e-05
-1.96587e-15
2.30925e-05
-2.81595e-15
2.30925e-05
-3.3116e-15
2.30925e-05
-2.78707e-15
-1.01753e-15
2.33637e-05
9.72524e-16
2.33637e-05
1.10215e-15
2.33637e-05
1.28155e-15
2.33637e-05
1.52166e-15
2.33637e-05
1.68294e-15
2.33637e-05
1.79786e-15
2.33637e-05
1.8209e-15
2.33637e-05
1.75844e-15
2.33637e-05
1.60533e-15
2.33637e-05
1.35516e-15
2.33637e-05
1.00587e-15
2.33637e-05
5.56198e-16
2.33637e-05
5.24206e-18
2.33637e-05
-6.47376e-16
2.33637e-05
-1.40015e-15
2.33637e-05
-2.24364e-15
2.33637e-05
-3.1401e-15
2.33637e-05
-3.8546e-15
2.33637e-05
-3.79605e-15
-1.38425e-15
2.36154e-05
1.85857e-15
2.36154e-05
1.79924e-15
2.36154e-05
1.81286e-15
2.36154e-05
1.9517e-15
2.36154e-05
2.02383e-15
2.36154e-05
2.03947e-15
2.36154e-05
1.98413e-15
2.36154e-05
1.84719e-15
2.36154e-05
1.62351e-15
2.36154e-05
1.31046e-15
2.36154e-05
9.06658e-16
2.36154e-05
4.112e-16
2.36154e-05
-1.76833e-16
2.36154e-05
-8.58467e-16
2.36154e-05
-1.63479e-15
2.36154e-05
-2.50571e-15
2.36154e-05
-3.46169e-15
2.36154e-05
-4.39587e-15
2.36154e-05
-4.80792e-15
-1.72787e-15
2.38498e-05
2.77468e-15
2.38498e-05
2.49468e-15
2.38498e-05
2.33562e-15
2.38498e-05
2.37057e-15
2.38498e-05
2.35053e-15
2.38498e-05
2.26945e-15
2.38498e-05
2.13477e-15
2.38498e-05
1.91925e-15
2.38498e-05
1.62535e-15
2.38498e-05
1.25116e-15
2.38498e-05
7.95906e-16
2.38498e-05
2.58979e-16
2.38498e-05
-3.60626e-16
2.38498e-05
-1.06475e-15
2.38498e-05
-1.85773e-15
2.38498e-05
-2.75124e-15
2.38498e-05
-3.77321e-15
2.38498e-05
-4.92517e-15
2.38498e-05
-5.80441e-15
-2.04414e-15
2.40687e-05
3.66554e-15
2.40687e-05
3.20622e-15
2.40687e-05
2.87084e-15
2.40687e-05
2.7947e-15
2.40687e-05
2.67738e-15
2.40687e-05
2.50057e-15
2.40687e-05
2.27567e-15
2.40687e-05
1.97647e-15
2.40687e-05
1.60969e-15
2.40687e-05
1.17391e-15
2.40687e-05
6.68625e-16
2.40687e-05
9.33549e-17
2.40687e-05
-5.53072e-16
2.40687e-05
-1.27346e-15
2.40687e-05
-2.07588e-15
2.40687e-05
-2.98507e-15
2.40687e-05
-4.06994e-15
2.40687e-05
-5.43885e-15
2.40687e-05
-6.77698e-15
-2.34004e-15
2.42736e-05
4.55288e-15
2.42736e-05
3.95614e-15
2.42736e-05
3.4373e-15
2.42736e-05
3.23375e-15
2.42736e-05
3.00657e-15
2.42736e-05
2.72226e-15
2.42736e-05
2.39263e-15
2.42736e-05
2.00268e-15
2.42736e-05
1.55922e-15
2.42736e-05
1.06115e-15
2.42736e-05
5.08005e-16
2.42736e-05
-1.00952e-16
2.42736e-05
-7.67351e-16
2.42736e-05
-1.49523e-15
2.42736e-05
-2.29676e-15
2.42736e-05
-3.21053e-15
2.42736e-05
-4.34769e-15
2.42736e-05
-5.92173e-15
2.42736e-05
-7.69224e-15
-2.60045e-15
2.44656e-05
5.50209e-15
2.44656e-05
4.76146e-15
2.44656e-05
4.02051e-15
2.44656e-05
3.65632e-15
2.44656e-05
3.29862e-15
2.44656e-05
2.88631e-15
2.44656e-05
2.44114e-15
2.44656e-05
1.9581e-15
2.44656e-05
1.44136e-15
2.44656e-05
8.88849e-16
2.44656e-05
2.98839e-16
2.44656e-05
-3.30628e-16
2.44656e-05
-1.00232e-15
2.44656e-05
-1.72192e-15
2.44656e-05
-2.50596e-15
2.44656e-05
-3.40698e-15
2.44656e-05
-4.57836e-15
2.44656e-05
-6.33632e-15
2.44656e-05
-8.50816e-15
-2.76332e-15
2.47813e-05
6.43493e-15
2.47813e-05
5.50145e-15
2.47813e-05
4.50106e-15
2.47813e-05
3.96584e-15
2.47813e-05
3.48165e-15
2.47813e-05
2.95041e-15
2.47813e-05
2.41399e-15
2.47813e-05
1.86427e-15
2.47813e-05
1.30183e-15
2.47813e-05
7.21253e-16
2.47813e-05
1.17995e-16
2.47813e-05
-5.11898e-16
2.47813e-05
-1.17271e-15
2.47813e-05
-1.87202e-15
2.47813e-05
-2.63108e-15
2.47813e-05
-3.517e-15
2.47813e-05
-4.72637e-15
2.47813e-05
-6.67829e-15
2.47813e-05
-9.26918e-15
-2.87647e-15
2.62084e-05
6.93159e-15
2.62084e-05
5.87689e-15
2.62084e-05
4.76398e-15
2.62084e-05
4.17165e-15
2.62084e-05
3.64672e-15
2.62084e-05
3.07439e-15
2.62084e-05
2.50938e-15
2.62084e-05
1.93434e-15
2.62084e-05
1.35168e-15
2.62084e-05
7.55098e-16
2.62084e-05
1.39326e-16
2.62084e-05
-4.99984e-16
2.62084e-05
-1.16776e-15
2.62084e-05
-1.87355e-15
2.62084e-05
-2.64449e-15
2.62084e-05
-3.5644e-15
2.62084e-05
-4.87412e-15
2.62084e-05
-7.08608e-15
2.62084e-05
-1.01154e-14
-3.32965e-15
2.77131e-05
6.55406e-15
2.77131e-05
5.71465e-15
2.77131e-05
4.91532e-15
2.77131e-05
4.48068e-15
2.77131e-05
4.04636e-15
2.77131e-05
3.52164e-15
2.77131e-05
2.94856e-15
2.77131e-05
2.33585e-15
2.77131e-05
1.69245e-15
2.77131e-05
1.02184e-15
2.77131e-05
3.26964e-16
2.77131e-05
-3.90532e-16
2.77131e-05
-1.13168e-15
2.77131e-05
-1.90435e-15
2.77131e-05
-2.73787e-15
2.77131e-05
-3.72564e-15
2.77131e-05
-5.13613e-15
2.77131e-05
-7.52845e-15
2.77131e-05
-1.08273e-14
-4.17675e-15
2.9299e-05
6.7184e-15
2.9299e-05
5.90863e-15
2.9299e-05
5.2335e-15
2.9299e-05
4.8331e-15
2.9299e-05
4.41551e-15
2.9299e-05
3.84391e-15
2.9299e-05
3.17814e-15
2.9299e-05
2.45577e-15
2.9299e-05
1.69832e-15
2.9299e-05
9.20936e-16
2.9299e-05
1.35916e-16
2.9299e-05
-6.46756e-16
2.9299e-05
-1.42154e-15
2.9299e-05
-2.1897e-15
2.9299e-05
-2.98093e-15
2.9299e-05
-3.89107e-15
2.9299e-05
-5.21411e-15
2.9299e-05
-7.59717e-15
2.9299e-05
-1.1096e-14
-4.30513e-15
3.09696e-05
9.07272e-15
3.09696e-05
7.78838e-15
3.09696e-05
6.34817e-15
3.09696e-05
5.35824e-15
3.09696e-05
4.47651e-15
3.09696e-05
3.54121e-15
3.09696e-05
2.64951e-15
3.09696e-05
1.79274e-15
3.09696e-05
9.72559e-16
3.09696e-05
1.86637e-16
3.09696e-05
-5.65881e-16
3.09696e-05
-1.28346e-15
3.09696e-05
-1.96494e-15
3.09696e-05
-2.6148e-15
3.09696e-05
-3.27051e-15
3.09696e-05
-4.04413e-15
3.09696e-05
-5.28563e-15
3.09696e-05
-7.80517e-15
3.09696e-05
-1.1792e-14
-3.56053e-15
3.27283e-05
1.02066e-14
3.27283e-05
8.82804e-15
3.27283e-05
7.04777e-15
3.27283e-05
5.99406e-15
3.27283e-05
5.03024e-15
3.27283e-05
3.96828e-15
3.27283e-05
2.97031e-15
3.27283e-05
2.02788e-15
3.27283e-05
1.13988e-15
3.27283e-05
2.99042e-16
3.27283e-05
-5.01454e-16
3.27283e-05
-1.26753e-15
3.27283e-05
-2.00618e-15
3.27283e-05
-2.73488e-15
3.27283e-05
-3.50163e-15
3.27283e-05
-4.44774e-15
3.27283e-05
-5.98453e-15
3.27283e-05
-9.02241e-15
3.27283e-05
-1.36729e-14
-4.37317e-15
3.45787e-05
1.03106e-14
3.45787e-05
8.96213e-15
3.45787e-05
7.23321e-15
3.45787e-05
6.2059e-15
3.45787e-05
5.28459e-15
3.45787e-05
4.26231e-15
3.45787e-05
3.27319e-15
3.45787e-05
2.3194e-15
3.45787e-05
1.40582e-15
3.45787e-05
5.29227e-16
3.45787e-05
-3.1436e-16
3.45787e-05
-1.12927e-15
3.45787e-05
-1.92251e-15
3.45787e-05
-2.71596e-15
3.45787e-05
-3.55943e-15
3.45787e-05
-4.60974e-15
3.45787e-05
-6.3101e-15
3.45787e-05
-9.61502e-15
3.45787e-05
-1.4521e-14
-5.08937e-15
3.65241e-05
1.04602e-14
3.65241e-05
9.16144e-15
3.65241e-05
7.46288e-15
3.65241e-05
6.44002e-15
3.65241e-05
5.51665e-15
3.65241e-05
4.47301e-15
3.65241e-05
3.451e-15
3.65241e-05
2.46156e-15
3.65241e-05
1.51076e-15
3.65241e-05
5.96345e-16
3.65241e-05
-2.8483e-16
3.65241e-05
-1.13659e-15
3.65241e-05
-1.96551e-15
3.65241e-05
-2.79437e-15
3.65241e-05
-3.67407e-15
3.65241e-05
-4.76716e-15
3.65241e-05
-6.53301e-15
3.65241e-05
-9.95476e-15
3.65241e-05
-1.49708e-14
-5.45313e-15
3.85677e-05
1.03784e-14
3.85677e-05
9.12592e-15
3.85677e-05
7.45769e-15
3.85677e-05
6.44358e-15
3.85677e-05
5.53242e-15
3.85677e-05
4.50133e-15
3.85677e-05
3.48795e-15
3.85677e-05
2.50648e-15
3.85677e-05
1.56143e-15
3.85677e-05
6.50377e-16
3.85677e-05
-2.29612e-16
3.85677e-05
-1.08208e-15
3.85677e-05
-1.91339e-15
3.85677e-05
-2.7462e-15
3.85677e-05
-3.63172e-15
3.85677e-05
-4.73571e-15
3.85677e-05
-6.52657e-15
3.85677e-05
-1.00073e-14
3.85677e-05
-1.51097e-14
-5.66354e-15
4.07126e-05
1.00822e-14
4.07126e-05
8.8955e-15
4.07126e-05
7.29195e-15
4.07126e-05
6.30978e-15
4.07126e-05
5.42928e-15
4.07126e-05
4.42885e-15
4.07126e-05
3.44182e-15
4.07126e-05
2.48561e-15
4.07126e-05
1.56423e-15
4.07126e-05
6.75413e-16
4.07126e-05
-1.83332e-16
4.07126e-05
-1.01514e-15
4.07126e-05
-1.82593e-15
4.07126e-05
-2.638e-15
4.07126e-05
-3.50222e-15
4.07126e-05
-4.58428e-15
4.07126e-05
-6.35334e-15
4.07126e-05
-9.8216e-15
4.07126e-05
-1.49856e-14
-5.69553e-15
4.29617e-05
9.52757e-15
4.29617e-05
8.43277e-15
4.29617e-05
6.93017e-15
4.29617e-05
6.00299e-15
4.29617e-05
5.1744e-15
4.29617e-05
4.2303e-15
4.29617e-05
3.29575e-15
4.29617e-05
2.39097e-15
4.29617e-05
1.51938e-15
4.29617e-05
6.78706e-16
4.29617e-05
-1.33225e-16
4.29617e-05
-9.19219e-16
4.29617e-05
-1.68484e-15
4.29617e-05
-2.4515e-15
4.29617e-05
-3.26867e-15
4.29617e-05
-4.29792e-15
4.29617e-05
-5.99792e-15
4.29617e-05
-9.36994e-15
4.29617e-05
-1.45241e-14
-5.53604e-15
4.53178e-05
8.6794e-15
4.53178e-05
7.70824e-15
4.53178e-05
6.35312e-15
4.53178e-05
5.51066e-15
4.53178e-05
4.75969e-15
4.53178e-05
3.90155e-15
4.53178e-05
3.04768e-15
4.53178e-05
2.22069e-15
4.53178e-05
1.42394e-15
4.53178e-05
6.55366e-16
4.53178e-05
-8.66107e-17
4.53178e-05
-8.04239e-16
4.53178e-05
-1.5024e-15
4.53178e-05
-2.20099e-15
4.53178e-05
-2.94643e-15
4.53178e-05
-3.89087e-15
4.53178e-05
-5.46652e-15
4.53178e-05
-8.62495e-15
4.53178e-05
-1.35613e-14
-5.1763e-15
4.77833e-05
7.54663e-15
4.77833e-05
6.72759e-15
4.77833e-05
5.56269e-15
4.77833e-05
4.83294e-15
4.77833e-05
4.18242e-15
4.77833e-05
3.43852e-15
4.77833e-05
2.69265e-15
4.77833e-05
1.96879e-15
4.77833e-05
1.27097e-15
4.77833e-05
5.97558e-16
4.77833e-05
-5.22724e-17
4.77833e-05
-6.79998e-16
4.77833e-05
-1.28954e-15
4.77833e-05
-1.89859e-15
4.77833e-05
-2.54884e-15
4.77833e-05
-3.37723e-15
4.77833e-05
-4.77125e-15
4.77833e-05
-7.58241e-15
4.77833e-05
-1.20036e-14
-4.61735e-15
5.03606e-05
6.20626e-15
5.03606e-05
5.55654e-15
5.03606e-05
4.61188e-15
5.03606e-05
4.01594e-15
5.03606e-05
3.48144e-15
5.03606e-05
2.8737e-15
5.03606e-05
2.25646e-15
5.03606e-05
1.65486e-15
5.03606e-05
1.07413e-15
5.03606e-05
5.1312e-16
5.03606e-05
-2.80746e-17
5.03606e-05
-5.5004e-16
5.03606e-05
-1.05553e-15
5.03606e-05
-1.5595e-15
5.03606e-05
-2.09752e-15
5.03606e-05
-2.78675e-15
5.03606e-05
-3.95545e-15
5.03606e-05
-6.31625e-15
5.03606e-05
-1.00052e-14
-3.89029e-15
5.30521e-05
4.77736e-15
5.30521e-05
4.30035e-15
5.30521e-05
3.58533e-15
5.30521e-05
3.1317e-15
5.30521e-05
2.71821e-15
5.30521e-05
2.2568e-15
5.30521e-05
1.77753e-15
5.30521e-05
1.30737e-15
5.30521e-05
8.52622e-16
5.30521e-05
4.12676e-16
5.30521e-05
-1.15382e-17
5.30521e-05
-4.1974e-16
5.30521e-05
-8.13516e-16
5.30521e-05
-1.20473e-15
5.30521e-05
-1.62213e-15
5.30521e-05
-2.1603e-15
5.30521e-05
-3.08037e-15
5.30521e-05
-4.93869e-15
5.30521e-05
-7.80709e-15
-3.06216e-15
5.58606e-05
3.40055e-15
5.58606e-05
3.07978e-15
5.58606e-05
2.57718e-15
5.58606e-05
2.2588e-15
5.58606e-05
1.95998e-15
5.58606e-05
1.63842e-15
5.58606e-05
1.29357e-15
5.58606e-05
9.51949e-16
5.58606e-05
6.21007e-16
5.58606e-05
3.00535e-16
5.58606e-05
-7.9026e-18
5.58606e-05
-3.03323e-16
5.58606e-05
-5.86321e-16
5.58606e-05
-8.65502e-16
5.58606e-05
-1.16273e-15
5.58606e-05
-1.54906e-15
5.58606e-05
-2.2169e-15
5.58606e-05
-3.56617e-15
5.58606e-05
-5.61297e-15
-2.21119e-15
5.87894e-05
2.20641e-15
5.87894e-05
2.01042e-15
5.87894e-05
1.68203e-15
5.87894e-05
1.47792e-15
5.87894e-05
1.27777e-15
5.87894e-05
1.07152e-15
5.87894e-05
8.4645e-16
5.87894e-05
6.18618e-16
5.87894e-05
3.98063e-16
5.87894e-05
1.84925e-16
5.87894e-05
-1.89302e-17
5.87894e-05
-2.12116e-16
5.87894e-05
-3.94493e-16
5.87894e-05
-5.7157e-16
5.87894e-05
-7.58831e-16
5.87894e-05
-1.0049e-15
5.87894e-05
-1.43861e-15
5.87894e-05
-2.32046e-15
5.87894e-05
-3.63126e-15
-1.42324e-15
6.18423e-05
1.28301e-15
6.18423e-05
1.17546e-15
6.18423e-05
9.72935e-16
6.18423e-05
8.53354e-16
6.18423e-05
7.29232e-16
6.18423e-05
6.04022e-16
6.18423e-05
4.75086e-16
6.18423e-05
3.37126e-16
6.18423e-05
2.04633e-16
6.18423e-05
7.7994e-17
6.18423e-05
-4.09721e-17
6.18423e-05
-1.50777e-16
6.18423e-05
-2.50831e-16
6.18423e-05
-3.44108e-16
6.18423e-05
-4.40566e-16
6.18423e-05
-5.69538e-16
6.18423e-05
-8.07197e-16
6.18423e-05
-1.30441e-15
6.18423e-05
-2.03059e-15
-7.74186e-16
6.50244e-05
6.63937e-16
6.50244e-05
6.09024e-16
6.50244e-05
4.87628e-16
6.50244e-05
4.13039e-16
6.50244e-05
3.3874e-16
6.50244e-05
2.64494e-16
6.50244e-05
2.00346e-16
6.50244e-05
1.25664e-16
6.50244e-05
5.57878e-17
6.50244e-05
-8.91752e-18
6.50244e-05
-6.68318e-17
6.50244e-05
-1.16534e-16
6.50244e-05
-1.57119e-16
6.50244e-05
-1.90072e-16
6.50244e-05
-2.20783e-16
6.50244e-05
-2.63975e-16
6.50244e-05
-3.58166e-16
6.50244e-05
-5.76208e-16
6.50244e-05
-8.98945e-16
-3.01427e-16
6.83416e-05
3.25871e-16
6.83416e-05
2.96206e-16
6.83416e-05
2.18076e-16
6.83416e-05
1.42674e-16
6.83416e-05
9.22973e-17
6.83416e-05
4.74101e-17
6.83416e-05
1.53016e-17
6.83416e-05
-2.20259e-17
6.83416e-05
-5.48561e-17
6.83416e-05
-8.09426e-17
6.83416e-05
-9.88858e-17
6.83416e-05
-1.09248e-16
6.83416e-05
-1.11698e-16
6.83416e-05
-1.06698e-16
6.83416e-05
-9.4151e-17
6.83416e-05
-8.08151e-17
6.83416e-05
-7.93746e-17
6.83416e-05
-1.1894e-16
6.83416e-05
-1.99029e-16
1.84984e-17
7.18003e-05
-9.57488e-18
7.18003e-05
1.68645e-18
7.18003e-05
3.33863e-17
7.18003e-05
2.84853e-18
7.18003e-05
8.02973e-17
7.18003e-05
5.81739e-17
7.18003e-05
2.8944e-17
7.18003e-05
8.48607e-19
7.18003e-05
-2.20698e-17
7.18003e-05
-3.59623e-17
7.18003e-05
-3.92947e-17
7.18003e-05
-3.34757e-17
7.18003e-05
-1.97456e-17
7.18003e-05
1.0749e-18
7.18003e-05
2.67232e-17
7.18003e-05
4.37704e-17
7.18003e-05
2.88776e-17
7.18003e-05
1.33218e-17
7.18003e-05
-1.06464e-16
-5.37067e-17
7.54079e-05
2.53893e-17
7.54079e-05
4.11454e-18
7.54079e-05
6.68955e-18
7.54079e-05
1.62993e-17
7.54079e-05
9.47381e-17
7.54079e-05
6.53631e-17
7.54079e-05
3.09912e-17
7.54079e-05
-3.31146e-18
7.54079e-05
-2.99177e-17
7.54079e-05
-4.57203e-17
7.54079e-05
-5.04618e-17
7.54079e-05
-4.52739e-17
7.54079e-05
-3.10507e-17
7.54079e-05
-8.55116e-18
7.54079e-05
1.85578e-17
7.54079e-05
3.83304e-17
7.54079e-05
2.19968e-17
7.54079e-05
1.40844e-17
7.54079e-05
-8.97641e-17
-3.28748e-17
7.91719e-05
3.7574e-16
7.91719e-05
3.03782e-16
7.91719e-05
1.68337e-16
7.91719e-05
1.2035e-16
7.91719e-05
6.06187e-17
7.91719e-05
1.85783e-19
7.91719e-05
-4.61451e-17
7.91719e-05
-9.08726e-17
7.91719e-05
-1.25229e-16
7.91719e-05
-1.47986e-16
7.91719e-05
-1.59912e-16
7.91719e-05
-1.61976e-16
7.91719e-05
-1.5428e-16
7.91719e-05
-1.37594e-16
7.91719e-05
-1.11638e-16
7.91719e-05
-7.89201e-17
7.91719e-05
-4.19745e-17
7.91719e-05
-1.84322e-17
7.91719e-05
3.42143e-17
2.11371e-16
8.31004e-05
5.50758e-16
8.31004e-05
4.62667e-16
8.31004e-05
3.14336e-16
8.31004e-05
2.24564e-16
8.31004e-05
1.4324e-16
8.31004e-05
6.38427e-17
8.31004e-05
1.52259e-18
8.31004e-05
-5.7746e-17
8.31004e-05
-1.07183e-16
8.31004e-05
-1.45753e-16
8.31004e-05
-1.73354e-16
8.31004e-05
-1.89876e-16
8.31004e-05
-1.95793e-16
8.31004e-05
-1.92954e-16
8.31004e-05
-1.83707e-16
8.31004e-05
-1.72834e-16
8.31004e-05
-1.69242e-16
8.31004e-05
-1.85915e-16
8.31004e-05
-1.70993e-16
1.84056e-16
8.72017e-05
7.2343e-16
8.72017e-05
6.22181e-16
8.72017e-05
4.53539e-16
8.72017e-05
3.40834e-16
8.72017e-05
2.39214e-16
8.72017e-05
1.38831e-16
8.72017e-05
5.61737e-17
8.72017e-05
-2.27134e-17
8.72017e-05
-9.02106e-17
8.72017e-05
-1.45611e-16
8.72017e-05
-1.89053e-16
8.72017e-05
-2.208e-16
8.72017e-05
-2.41524e-16
8.72017e-05
-2.53196e-16
8.72017e-05
-2.60715e-16
8.72017e-05
-2.71748e-16
8.72017e-05
-3.00131e-16
8.72017e-05
-3.60346e-16
8.72017e-05
-3.73093e-16
1.54581e-16
9.14844e-05
8.3955e-16
9.14844e-05
7.30796e-16
9.14844e-05
5.51594e-16
9.14844e-05
4.20996e-16
9.14844e-05
3.09882e-16
9.14844e-05
1.99372e-16
9.14844e-05
1.05335e-16
9.14844e-05
1.50054e-17
9.14844e-05
-6.37897e-17
9.14844e-05
-1.3058e-16
9.14844e-05
-1.85681e-16
9.14844e-05
-2.29614e-16
9.14844e-05
-2.63441e-16
9.14844e-05
-2.89841e-16
9.14844e-05
-3.15123e-16
9.14844e-05
-3.49596e-16
9.14844e-05
-4.10145e-16
9.14844e-05
-5.08681e-16
9.14844e-05
-5.39006e-16
1.12622e-16
9.59574e-05
8.36058e-16
9.59574e-05
7.26599e-16
9.59574e-05
5.60268e-16
9.59574e-05
4.49199e-16
9.59574e-05
3.49891e-16
9.59574e-05
2.4877e-16
9.59574e-05
1.60534e-16
9.59574e-05
7.32764e-17
9.59574e-05
-5.6587e-18
9.59574e-05
-7.57777e-17
9.59574e-05
-1.37287e-16
9.59574e-05
-1.90691e-16
9.59574e-05
-2.37261e-16
9.59574e-05
-2.80375e-16
9.59574e-05
-3.26808e-16
9.59574e-05
-3.88676e-16
9.59574e-05
-4.84788e-16
9.59574e-05
-6.24865e-16
9.59574e-05
-6.73323e-16
2.05475e-17
0.00010063
8.44118e-16
0.00010063
7.34384e-16
0.00010063
5.75112e-16
0.00010063
4.7658e-16
0.00010063
3.80683e-16
0.00010063
2.82496e-16
0.00010063
1.95712e-16
0.00010063
1.08459e-16
0.00010063
2.79398e-17
0.00010063
-4.53114e-17
0.00010063
-1.11498e-16
0.00010063
-1.71239e-16
0.00010063
-2.26122e-16
0.00010063
-2.80245e-16
0.00010063
-3.40546e-16
0.00010063
-4.2065e-16
0.00010063
-5.40291e-16
0.00010063
-7.07622e-16
0.00010063
-7.50613e-16
-3.1686e-17
0.000105513
8.53257e-16
0.000105513
7.52266e-16
0.000105513
6.04608e-16
0.000105513
5.0223e-16
0.000105513
4.06672e-16
0.000105513
3.0779e-16
0.000105513
2.19103e-16
0.000105513
1.29165e-16
0.000105513
4.53235e-17
0.000105513
-3.19527e-17
0.000105513
-1.02944e-16
0.000105513
-1.68371e-16
0.000105513
-2.3001e-16
0.000105513
-2.92056e-16
0.000105513
-3.61649e-16
0.000105513
-4.52668e-16
0.000105513
-5.84401e-16
0.000105513
-7.59611e-16
0.000105513
-7.86016e-16
-5.10904e-17
0.000110616
7.93016e-16
0.000110616
7.05061e-16
0.000110616
5.79458e-16
0.000110616
4.86332e-16
0.000110616
3.99509e-16
0.000110616
3.09368e-16
0.000110616
2.28256e-16
0.000110616
1.44544e-16
0.000110616
6.52713e-17
0.000110616
-9.10837e-18
0.000110616
-7.88752e-17
0.000110616
-1.44771e-16
0.000110616
-2.08643e-16
0.000110616
-2.74265e-16
0.000110616
-3.48654e-16
0.000110616
-4.44987e-16
0.000110616
-5.80929e-16
0.000110616
-7.55716e-16
0.000110616
-7.87065e-16
-7.81943e-17
0.000115951
6.95927e-16
0.000115951
6.23557e-16
0.000115951
5.23674e-16
0.000115951
4.45911e-16
0.000115951
3.72401e-16
0.000115951
2.9524e-16
0.000115951
2.25772e-16
0.000115951
1.52255e-16
0.000115951
8.13551e-17
0.000115951
1.35907e-17
0.000115951
-5.12814e-17
0.000115951
-1.1397e-16
0.000115951
-1.76209e-16
0.000115951
-2.41231e-16
0.000115951
-3.15617e-16
0.000115951
-4.11371e-16
0.000115951
-5.44284e-16
0.000115951
-7.11978e-16
0.000115951
-7.60906e-16
-1.03272e-16
0.000121529
5.75679e-16
0.000121529
5.21038e-16
0.000121529
4.48336e-16
0.000121529
3.87969e-16
0.000121529
3.29872e-16
0.000121529
2.68011e-16
0.000121529
2.12531e-16
0.000121529
1.51918e-16
0.000121529
9.21252e-17
0.000121529
3.37655e-17
0.000121529
-2.33767e-17
0.000121529
-7.99352e-17
0.000121529
-1.37316e-16
0.000121529
-1.98332e-16
0.000121529
-2.68841e-16
0.000121529
-3.59419e-16
0.000121529
-4.84069e-16
0.000121529
-6.40655e-16
0.000121529
-7.06616e-16
-1.23099e-16
0.000127364
4.42642e-16
0.000127364
4.06259e-16
0.000127364
3.60941e-16
0.000127364
3.18368e-16
0.000127364
2.76345e-16
0.000127364
2.30617e-16
0.000127364
1.89726e-16
0.000127364
1.43307e-16
0.000127364
9.61669e-17
0.000127364
4.89832e-17
0.000127364
1.58632e-18
0.000127364
-4.65087e-17
0.000127364
-9.63752e-17
0.000127364
-1.50408e-16
0.000127364
-2.13539e-16
0.000127364
-2.9476e-16
0.000127364
-4.06381e-16
0.000127364
-5.47903e-16
0.000127364
-6.24439e-16
-1.35053e-16
0.00013347
3.06366e-16
0.00013347
2.87231e-16
0.00013347
2.67411e-16
0.00013347
2.41428e-16
0.00013347
2.14776e-16
0.00013347
1.84677e-16
0.00013347
1.575e-16
0.00013347
1.25381e-16
0.00013347
9.13762e-17
0.00013347
5.62546e-17
0.00013347
1.99161e-17
0.00013347
-1.7963e-17
0.00013347
-5.81953e-17
0.00013347
-1.02611e-16
0.00013347
-1.55039e-16
0.00013347
-2.22571e-16
0.00013347
-3.15307e-16
0.00013347
-4.33856e-16
0.00013347
-5.10234e-16
-1.36912e-16
0.000139863
1.78843e-16
0.000139863
1.74685e-16
0.000139863
1.75735e-16
0.000139863
1.6339e-16
0.000139863
1.4988e-16
0.000139863
1.33467e-16
0.000139863
1.17915e-16
0.000139863
9.89923e-17
0.000139863
7.74606e-17
0.000139863
5.42926e-17
0.000139863
2.94469e-17
0.000139863
2.73117e-18
0.000139863
-2.63866e-17
0.000139863
-5.91513e-17
0.000139863
-9.82332e-17
0.000139863
-1.48678e-16
0.000139863
-2.18018e-16
0.000139863
-3.07286e-16
0.000139863
-3.7295e-16
-1.26554e-16
0.000146559
7.26616e-17
0.000146559
7.9695e-17
0.000146559
9.50992e-17
0.000146559
9.17592e-17
0.000146559
8.75987e-17
0.000146559
8.14361e-17
0.000146559
7.46172e-17
0.000146559
6.61936e-17
0.000146559
5.53184e-17
0.000146559
4.29565e-17
0.000146559
2.91043e-17
0.000146559
1.36887e-17
0.000146559
-3.57948e-18
0.000146559
-2.34243e-17
0.000146559
-4.74623e-17
0.000146559
-7.88553e-17
0.000146559
-1.2273e-16
0.000146559
-1.80646e-16
0.000146559
-2.31828e-16
-1.02092e-16
0.000153578
-1.27427e-18
0.000153578
1.17705e-17
0.000153578
3.31995e-17
0.000153578
3.26141e-17
0.000153578
3.24896e-17
0.000153578
3.16122e-17
0.000153578
2.99573e-17
0.000153578
2.79495e-17
0.000153578
2.48295e-17
0.000153578
2.11291e-17
0.000153578
1.68836e-17
0.000153578
1.21253e-17
0.000153578
6.70449e-18
0.000153578
4.13006e-19
0.000153578
-7.4758e-18
0.000153578
-1.87461e-17
0.000153578
-3.62996e-17
0.000153578
-6.21077e-17
0.000153578
-9.46368e-17
-6.16479e-17
0.000160939
-3.45623e-17
0.000160939
-2.1377e-17
0.000160939
-3.56957e-18
0.000160939
-8.67028e-18
0.000160939
-1.11196e-17
0.000160939
-1.29835e-17
0.000160939
-1.39543e-17
0.000160939
-1.3898e-17
0.000160939
-1.30051e-17
0.000160939
-1.10432e-17
0.000160939
-7.85356e-18
0.000160939
-3.36242e-18
0.000160939
2.38801e-18
0.000160939
9.45959e-18
0.000160939
1.77035e-17
0.000160939
2.64814e-17
0.000160939
3.46256e-17
0.000160939
3.99482e-17
0.000160939
2.99479e-17
-5.6502e-18
0.000168666
-2.34026e-17
0.000168666
-1.56348e-17
0.000168666
-1.12318e-17
0.000168666
-2.80956e-17
0.000168666
-3.93593e-17
0.000168666
-4.88195e-17
0.000168666
-5.38944e-17
0.000168666
-5.64821e-17
0.000168666
-5.57585e-17
0.000168666
-5.15089e-17
0.000168666
-4.37668e-17
0.000168666
-3.22605e-17
0.000168666
-1.69401e-17
0.000168666
2.25731e-18
0.000168666
2.54426e-17
0.000168666
5.28437e-17
0.000168666
8.43173e-17
0.000168666
1.17483e-16
0.000168666
1.32368e-16
6.20036e-17
0.000176784
3.31183e-17
0.000176784
2.58579e-17
0.000176784
8.99749e-18
0.000176784
-2.50177e-17
0.000176784
-5.01454e-17
0.000176784
-7.23472e-17
0.000176784
-8.53169e-17
0.000176784
-9.52587e-17
0.000176784
-9.90018e-17
0.000176784
-9.57385e-17
0.000176784
-8.67491e-17
0.000176784
-7.12659e-17
0.000176784
-4.91752e-17
0.000176784
-2.04013e-17
0.000176784
1.52211e-17
0.000176784
5.80934e-17
0.000176784
1.08513e-16
0.000176784
1.63588e-16
0.000176784
2.02859e-16
1.33822e-16
0.000185324
1.12605e-16
0.000185324
9.07643e-17
0.000185324
4.99088e-17
0.000185324
-2.75457e-18
0.000185324
-4.33415e-17
0.000185324
-7.99925e-17
0.000185324
-1.03363e-16
0.000185324
-1.2343e-16
0.000185324
-1.34767e-16
0.000185324
-1.35975e-16
0.000185324
-1.28419e-16
0.000185324
-1.12351e-16
0.000185324
-8.71793e-17
0.000185324
-5.28108e-17
0.000185324
-9.1415e-18
0.000185324
4.41148e-17
0.000185324
1.0724e-16
0.000185324
1.76686e-16
0.000185324
2.37472e-16
1.9437e-16
0.000194318
1.83567e-16
0.000194318
1.60432e-16
0.000194318
9.85471e-17
0.000194318
3.0339e-17
0.000194318
-2.232e-17
0.000194318
-7.06145e-17
0.000194318
-1.04884e-16
0.000194318
-1.34731e-16
0.000194318
-1.54196e-16
0.000194318
-1.62284e-16
0.000194318
-1.57651e-16
0.000194318
-1.44211e-16
0.000194318
-1.20271e-16
0.000194318
-8.52334e-17
0.000194318
-3.92918e-17
0.000194318
1.76539e-17
0.000194318
8.56835e-17
0.000194318
1.60106e-16
0.000194318
2.31081e-16
2.27858e-16
0.000203805
2.27337e-16
0.000203805
2.08635e-16
0.000203805
1.37927e-16
0.000203805
6.07456e-17
0.000203805
3.51905e-18
0.000203805
-4.97899e-17
0.000203805
-9.22727e-17
0.000203805
-1.28372e-16
0.000203805
-1.53734e-16
0.000203805
-1.67881e-16
0.000203805
-1.67857e-16
0.000203805
-1.58373e-16
0.000203805
-1.38848e-16
0.000203805
-1.07635e-16
0.000203805