/*--------------------------------*- C++ -*----------------------------------*\
  =========                 |
  \\      /  F ield         | OpenFOAM: The Open Source CFD Toolbox
   \\    /   O peration     | Website:  https://openfoam.org
    \\  /    A nd           | Version:  6
     \\/     M anipulation  |
\*---------------------------------------------------------------------------*/
FoamFile
{
    version     2.0;
    format      ascii;
    class       surfaceScalarField;
    location    "19.44";
    object      phi_0;
}
// * * * * * * * * * * * * * * * * * * * * * * * * * * * * * * * * * * * * * //

dimensions      [0 3 -1 0 0 0 0];

internalField   nonuniform List<scalar> 
2671
(
1.62395e-05
-2.06378e-15
1.62395e-05
-1.16333e-15
1.62395e-05
-7.92155e-17
1.62395e-05
2.70087e-17
1.62395e-05
1.59254e-16
1.62395e-05
2.63139e-16
1.62395e-05
2.57833e-16
1.62395e-05
1.68773e-16
1.62395e-05
3.77869e-17
1.62395e-05
-1.15095e-16
1.62395e-05
-2.69435e-16
1.62395e-05
-4.14839e-16
1.62395e-05
-5.20604e-16
1.62395e-05
-5.70239e-16
1.62395e-05
-5.54046e-16
1.62395e-05
-4.03053e-16
1.62395e-05
-7.5027e-17
1.62395e-05
3.59593e-16
1.62395e-05
3.07542e-15
1.87945e-15
1.62762e-05
-5.10604e-15
1.62762e-05
-3.92878e-15
1.62762e-05
-2.19406e-15
1.62762e-05
-1.58475e-15
1.62762e-05
-1.1306e-15
1.62762e-05
-7.00664e-16
1.62762e-05
-3.95491e-16
1.62762e-05
-1.93322e-16
1.62762e-05
-7.46045e-17
1.62762e-05
-1.27364e-17
1.62762e-05
2.80036e-17
1.62762e-05
6.37575e-17
1.62762e-05
1.21727e-16
1.62762e-05
2.28611e-16
1.62762e-05
4.10954e-16
1.62762e-05
7.04147e-16
1.62762e-05
1.18495e-15
1.62762e-05
2.06946e-15
1.62762e-05
6.67614e-15
3.8329e-15
1.7748e-05
-5.53759e-15
1.7748e-05
-4.59393e-15
1.7748e-05
-2.96533e-15
1.7748e-05
-2.1831e-15
1.7748e-05
-1.66942e-15
1.7748e-05
-1.07304e-15
1.7748e-05
-5.93824e-16
1.7748e-05
-2.13964e-16
1.7748e-05
7.61656e-17
1.7748e-05
2.95966e-16
1.7748e-05
4.73095e-16
1.7748e-05
6.16525e-16
1.7748e-05
7.51088e-16
1.7748e-05
8.79784e-16
1.7748e-05
1.01371e-15
1.7748e-05
1.18322e-15
1.7748e-05
1.43797e-15
1.7748e-05
2.3205e-15
1.7748e-05
6.42098e-15
3.36081e-15
1.87912e-05
-5.23386e-15
1.87912e-05
-4.6422e-15
1.87912e-05
-3.25327e-15
1.87912e-05
-2.46061e-15
1.87912e-05
-1.89941e-15
1.87912e-05
-1.24195e-15
1.87912e-05
-6.6693e-16
1.87912e-05
-1.83266e-16
1.87912e-05
2.08662e-16
1.87912e-05
5.16528e-16
1.87912e-05
7.54917e-16
1.87912e-05
9.33501e-16
1.87912e-05
1.07377e-15
1.87912e-05
1.1673e-15
1.87912e-05
1.21712e-15
1.87912e-05
1.25083e-15
1.87912e-05
1.32872e-15
1.87912e-05
2.13547e-15
1.87912e-05
5.93841e-15
3.05587e-15
1.9601e-05
-4.769e-15
1.9601e-05
-4.43342e-15
1.9601e-05
-3.16557e-15
1.9601e-05
-2.35754e-15
1.9601e-05
-1.76196e-15
1.9601e-05
-1.07621e-15
1.9601e-05
-4.70696e-16
1.9601e-05
3.99453e-17
1.9601e-05
4.50461e-16
1.9601e-05
7.65184e-16
1.9601e-05
9.91659e-16
1.9601e-05
1.13806e-15
1.9601e-05
1.1977e-15
1.9601e-05
1.18879e-15
1.9601e-05
1.11359e-15
1.9601e-05
9.85067e-16
1.9601e-05
8.87304e-16
1.9601e-05
1.60093e-15
1.9601e-05
5.14179e-15
2.53355e-15
2.02638e-05
-4.27825e-15
2.02638e-05
-4.03194e-15
2.02638e-05
-2.86915e-15
2.02638e-05
-2.07229e-15
2.02638e-05
-1.47674e-15
2.02638e-05
-7.94587e-16
2.02638e-05
-1.99159e-16
2.02638e-05
2.96937e-16
2.02638e-05
6.85927e-16
2.02638e-05
9.69113e-16
2.02638e-05
1.15189e-15
2.02638e-05
1.22465e-15
2.02638e-05
1.19662e-15
2.02638e-05
1.08512e-15
2.02638e-05
8.85207e-16
2.02638e-05
6.08116e-16
2.02638e-05
3.69977e-16
2.02638e-05
9.8287e-16
2.02638e-05
4.25795e-15
2.00737e-15
2.08254e-05
-3.72423e-15
2.08254e-05
-3.54559e-15
2.08254e-05
-2.47315e-15
2.08254e-05
-1.69715e-15
2.08254e-05
-1.11459e-15
2.08254e-05
-4.56173e-16
2.08254e-05
1.06575e-16
2.08254e-05
5.65056e-16
2.08254e-05
9.09714e-16
2.08254e-05
1.14122e-15
2.08254e-05
1.25365e-15
2.08254e-05
1.23825e-15
2.08254e-05
1.13228e-15
2.08254e-05
9.19029e-16
2.08254e-05
5.97051e-16
2.08254e-05
1.90415e-16
2.08254e-05
-1.67589e-16
2.08254e-05
3.08851e-16
2.08254e-05
3.32255e-15
1.49349e-15
2.13131e-05
-3.08941e-15
2.13131e-05
-2.9849e-15
2.13131e-05
-2.01118e-15
2.13131e-05
-1.2714e-15
2.13131e-05
-7.15641e-16
2.13131e-05
-1.03222e-16
2.13131e-05
4.08386e-16
2.13131e-05
8.12472e-16
2.13131e-05
1.09874e-15
2.13131e-05
1.26661e-15
2.13131e-05
1.29027e-15
2.13131e-05
1.20909e-15
2.13131e-05
1.02136e-15
2.13131e-05
7.11595e-16
2.13131e-05
2.85704e-16
2.13131e-05
-2.30396e-16
2.13131e-05
-7.02955e-16
2.13131e-05
-3.64575e-16
2.13131e-05
2.36727e-15
1.00181e-15
2.17442e-05
-2.38962e-15
2.17442e-05
-2.36174e-15
2.17442e-05
-1.49947e-15
2.17442e-05
-8.13041e-16
2.17442e-05
-2.97969e-16
2.17442e-05
2.51398e-16
2.17442e-05
6.98379e-16
2.17442e-05
1.03728e-15
2.17442e-05
1.25766e-15
2.17442e-05
1.3451e-15
2.17442e-05
1.29592e-15
2.17442e-05
1.15296e-15
2.17442e-05
8.83764e-16
2.17442e-05
4.91212e-16
2.17442e-05
-2.02558e-17
2.17442e-05
-6.25994e-16
2.17442e-05
-1.21987e-15
2.17442e-05
-1.01941e-15
2.17442e-05
1.3169e-15
5.16458e-16
2.21305e-05
-1.71963e-15
2.21305e-05
-1.69937e-15
2.21305e-05
-9.58384e-16
2.21305e-05
-3.41729e-16
2.21305e-05
1.20076e-16
2.21305e-05
5.94585e-16
2.21305e-05
9.66647e-16
2.21305e-05
1.23312e-15
2.21305e-05
1.38027e-15
2.21305e-05
1.38305e-15
2.21305e-05
1.27992e-15
2.21305e-05
1.06461e-15
2.21305e-05
7.24577e-16
2.21305e-05
2.61628e-16
2.21305e-05
-3.19954e-16
2.21305e-05
-9.98397e-16
2.21305e-05
-1.69786e-15
2.21305e-05
-1.63809e-15
2.21305e-05
2.40628e-16
1.23957e-16
2.24803e-05
-1.09974e-15
2.24803e-05
-1.01798e-15
2.24803e-05
-4.02418e-16
2.24803e-05
1.32266e-16
2.24803e-05
5.30946e-16
2.24803e-05
9.22521e-16
2.24803e-05
1.21249e-15
2.24803e-05
1.40106e-15
2.24803e-05
1.46244e-15
2.24803e-05
1.40043e-15
2.24803e-05
1.2373e-15
2.24803e-05
9.54194e-16
2.24803e-05
5.50685e-16
2.24803e-05
2.71364e-17
2.24803e-05
-6.12281e-16
2.24803e-05
-1.34779e-15
2.24803e-05
-2.11726e-15
2.24803e-05
-2.21543e-15
2.24803e-05
-7.81021e-16
-2.37899e-16
2.27997e-05
-4.5612e-16
2.27997e-05
-3.1814e-16
2.27997e-05
1.63762e-16
2.27997e-05
6.05946e-16
2.27997e-05
9.32392e-16
2.27997e-05
1.23552e-15
2.27997e-05
1.43831e-15
2.27997e-05
1.54124e-15
2.27997e-05
1.52306e-15
2.27997e-05
1.40289e-15
2.27997e-05
1.17323e-15
2.27997e-05
8.29087e-16
2.27997e-05
3.69624e-16
2.27997e-05
-2.05179e-16
2.27997e-05
-8.91365e-16
2.27997e-05
-1.67033e-15
2.27997e-05
-2.4811e-15
2.27997e-05
-2.76965e-15
2.27997e-05
-1.78794e-15
-6.35585e-16
2.30932e-05
2.11906e-16
2.30932e-05
3.93453e-16
2.30932e-05
7.30817e-16
2.30932e-05
1.07305e-15
2.30932e-05
1.31944e-15
2.30932e-05
1.53011e-15
2.30932e-05
1.64177e-15
2.30932e-05
1.6568e-15
2.30932e-05
1.57078e-15
2.30932e-05
1.38578e-15
2.30932e-05
1.09451e-15
2.30932e-05
6.95043e-16
2.30932e-05
1.86657e-16
2.30932e-05
-4.30606e-16
2.30932e-05
-1.15365e-15
2.30932e-05
-1.96706e-15
2.30932e-05
-2.81714e-15
2.30932e-05
-3.3134e-15
2.30932e-05
-2.79055e-15
-1.01808e-15
2.33645e-05
9.7716e-16
2.33645e-05
1.10622e-15
2.33645e-05
1.28456e-15
2.33645e-05
1.52392e-15
2.33645e-05
1.68456e-15
2.33645e-05
1.7988e-15
2.33645e-05
1.82128e-15
2.33645e-05
1.75836e-15
2.33645e-05
1.60483e-15
2.33645e-05
1.35432e-15
2.33645e-05
1.00478e-15
2.33645e-05
5.54927e-16
2.33645e-05
3.87363e-18
2.33645e-05
-6.48764e-16
2.33645e-05
-1.4015e-15
2.33645e-05
-2.24491e-15
2.33645e-05
-3.14142e-15
2.33645e-05
-3.85661e-15
2.33645e-05
-3.79983e-15
-1.3849e-15
2.36162e-05
1.86366e-15
2.36162e-05
1.80328e-15
2.36162e-05
1.81584e-15
2.36162e-05
1.95395e-15
2.36162e-05
2.02545e-15
2.36162e-05
2.04042e-15
2.36162e-05
1.98458e-15
2.36162e-05
1.84715e-15
2.36162e-05
1.62306e-15
2.36162e-05
1.30966e-15
2.36162e-05
9.05592e-16
2.36162e-05
4.09946e-16
2.36162e-05
-1.78196e-16
2.36162e-05
-8.59863e-16
2.36162e-05
-1.63616e-15
2.36162e-05
-2.50704e-15
2.36162e-05
-3.46313e-15
2.36162e-05
-4.39804e-15
2.36162e-05
-4.81195e-15
-1.72857e-15
2.38506e-05
2.77971e-15
2.38506e-05
2.49879e-15
2.38506e-05
2.33863e-15
2.38506e-05
2.37286e-15
2.38506e-05
2.35219e-15
2.38506e-05
2.27051e-15
2.38506e-05
2.13529e-15
2.38506e-05
1.91927e-15
2.38506e-05
1.62495e-15
2.38506e-05
1.25042e-15
2.38506e-05
7.94888e-16
2.38506e-05
2.57765e-16
2.38506e-05
-3.61961e-16
2.38506e-05
-1.06613e-15
2.38506e-05
-1.8591e-15
2.38506e-05
-2.7526e-15
2.38506e-05
-3.77472e-15
2.38506e-05
-4.92747e-15
2.38506e-05
-5.80866e-15
-2.04496e-15
2.40695e-05
3.67044e-15
2.40695e-05
3.21031e-15
2.40695e-05
2.87386e-15
2.40695e-05
2.79701e-15
2.40695e-05
2.67911e-15
2.40695e-05
2.50174e-15
2.40695e-05
2.27627e-15
2.40695e-05
1.97658e-15
2.40695e-05
1.60939e-15
2.40695e-05
1.17326e-15
2.40695e-05
6.67698e-16
2.40695e-05
9.2222e-17
2.40695e-05
-5.54341e-16
2.40695e-05
-1.2748e-15
2.40695e-05
-2.07724e-15
2.40695e-05
-2.98645e-15
2.40695e-05
-4.07151e-15
2.40695e-05
-5.44129e-15
2.40695e-05
-6.78149e-15
-2.34109e-15
2.42743e-05
4.55758e-15
2.42743e-05
3.96013e-15
2.42743e-05
3.44026e-15
2.42743e-05
3.23606e-15
2.42743e-05
3.00835e-15
2.42743e-05
2.72349e-15
2.42743e-05
2.39332e-15
2.42743e-05
2.0029e-15
2.42743e-05
1.55903e-15
2.42743e-05
1.06063e-15
2.42743e-05
5.07205e-16
2.42743e-05
-1.01966e-16
2.42743e-05
-7.68518e-16
2.42743e-05
-1.49649e-15
2.42743e-05
-2.29808e-15
2.42743e-05
-3.2119e-15
2.42743e-05
-4.34931e-15
2.42743e-05
-5.92429e-15
2.42743e-05
-7.69699e-15
-2.60176e-15
2.44663e-05
5.50658e-15
2.44663e-05
4.76526e-15
2.44663e-05
4.02335e-15
2.44663e-05
3.65858e-15
2.44663e-05
3.30042e-15
2.44663e-05
2.88759e-15
2.44663e-05
2.44192e-15
2.44663e-05
1.95845e-15
2.44663e-05
1.44132e-15
2.44663e-05
8.88489e-16
2.44663e-05
2.98206e-16
2.44663e-05
-3.31484e-16
2.44663e-05
-1.00334e-15
2.44663e-05
-1.72307e-15
2.44663e-05
-2.5072e-15
2.44663e-05
-3.40833e-15
2.44663e-05
-4.58002e-15
2.44663e-05
-6.33901e-15
2.44663e-05
-8.51313e-15
-2.76492e-15
2.4782e-05
6.43913e-15
2.4782e-05
5.505e-15
2.4782e-05
4.50373e-15
2.4782e-05
3.96802e-15
2.4782e-05
3.48345e-15
2.4782e-05
2.95173e-15
2.4782e-05
2.41486e-15
2.4782e-05
1.86475e-15
2.4782e-05
1.30195e-15
2.4782e-05
7.21067e-16
2.4782e-05
1.17541e-16
2.4782e-05
-5.12578e-16
2.4782e-05
-1.17357e-15
2.4782e-05
-1.87304e-15
2.4782e-05
-2.63222e-15
2.4782e-05
-3.51831e-15
2.4782e-05
-4.72805e-15
2.4782e-05
-6.68107e-15
2.4782e-05
-9.27432e-15
-2.87842e-15
2.62091e-05
6.93565e-15
2.62091e-05
5.88033e-15
2.62091e-05
4.76654e-15
2.62091e-05
4.17372e-15
2.62091e-05
3.64842e-15
2.62091e-05
3.07564e-15
2.62091e-05
2.51022e-15
2.62091e-05
1.93482e-15
2.62091e-05
1.35184e-15
2.62091e-05
7.54966e-16
2.62091e-05
1.38945e-16
2.62091e-05
-5.00579e-16
2.62091e-05
-1.16853e-15
2.62091e-05
-1.87447e-15
2.62091e-05
-2.64553e-15
2.62091e-05
-3.56561e-15
2.62091e-05
-4.87571e-15
2.62091e-05
-7.0888e-15
2.62091e-05
-1.01205e-14
-3.33174e-15
2.77139e-05
6.55823e-15
2.77139e-05
5.71814e-15
2.77139e-05
4.91785e-15
2.77139e-05
4.48266e-15
2.77139e-05
4.04792e-15
2.77139e-05
3.52271e-15
2.77139e-05
2.94922e-15
2.77139e-05
2.33615e-15
2.77139e-05
1.69242e-15
2.77139e-05
1.02155e-15
2.77139e-05
3.26443e-16
2.77139e-05
-3.9124e-16
2.77139e-05
-1.13254e-15
2.77139e-05
-1.90532e-15
2.77139e-05
-2.7389e-15
2.77139e-05
-3.72676e-15
2.77139e-05
-5.13751e-15
2.77139e-05
-7.53083e-15
2.77139e-05
-1.08321e-14
-4.17847e-15
2.92999e-05
6.72188e-15
2.92999e-05
5.91165e-15
2.92999e-05
5.23594e-15
2.92999e-05
4.83511e-15
2.92999e-05
4.41717e-15
2.92999e-05
3.84513e-15
2.92999e-05
3.17897e-15
2.92999e-05
2.45627e-15
2.92999e-05
1.6985e-15
2.92999e-05
9.20832e-16
2.92999e-05
1.35564e-16
2.92999e-05
-6.47326e-16
2.92999e-05
-1.4223e-15
2.92999e-05
-2.1906e-15
2.92999e-05
-2.98194e-15
2.92999e-05
-3.89219e-15
2.92999e-05
-5.21549e-15
2.92999e-05
-7.59952e-15
2.92999e-05
-1.11008e-14
-4.30714e-15
3.09705e-05
9.075e-15
3.09705e-05
7.79044e-15
3.09705e-05
6.35009e-15
3.09705e-05
5.36013e-15
3.09705e-05
4.47834e-15
3.09705e-05
3.54285e-15
3.09705e-05
2.65092e-15
3.09705e-05
1.79391e-15
3.09705e-05
9.73467e-16
3.09705e-05
1.87268e-16
3.09705e-05
-5.65534e-16
3.09705e-05
-1.2834e-15
3.09705e-05
-1.96517e-15
3.09705e-05
-2.61531e-15
3.09705e-05
-3.27132e-15
3.09705e-05
-4.04527e-15
3.09705e-05
-5.2873e-15
3.09705e-05
-7.80809e-15
3.09705e-05
-1.17976e-14
-3.56375e-15
3.27293e-05
1.02092e-14
3.27293e-05
8.83022e-15
3.27293e-05
7.04948e-15
3.27293e-05
5.99561e-15
3.27293e-05
5.03166e-15
3.27293e-05
3.96952e-15
3.27293e-05
2.97137e-15
3.27293e-05
2.02876e-15
3.27293e-05
1.14059e-15
3.27293e-05
2.99552e-16
3.27293e-05
-5.01147e-16
3.27293e-05
-1.26743e-15
3.27293e-05
-2.00632e-15
3.27293e-05
-2.73525e-15
3.27293e-05
-3.50226e-15
3.27293e-05
-4.44868e-15
3.27293e-05
-5.98597e-15
3.27293e-05
-9.02506e-15
3.27293e-05
-1.36781e-14
-4.37605e-15
3.45796e-05
1.03133e-14
3.45796e-05
8.96439e-15
3.45796e-05
7.23494e-15
3.45796e-05
6.20738e-15
3.45796e-05
5.28588e-15
3.45796e-05
4.26335e-15
3.45796e-05
3.274e-15
3.45796e-05
2.32002e-15
3.45796e-05
1.40626e-15
3.45796e-05
5.2948e-16
3.45796e-05
-3.14289e-16
3.45796e-05
-1.12939e-15
3.45796e-05
-1.92281e-15
3.45796e-05
-2.71646e-15
3.45796e-05
-3.56012e-15
3.45796e-05
-4.61066e-15
3.45796e-05
-6.31138e-15
3.45796e-05
-9.61722e-15
3.45796e-05
-1.45253e-14
-5.09175e-15
3.6525e-05
1.04624e-14
3.6525e-05
9.16339e-15
3.6525e-05
7.46441e-15
3.6525e-05
6.44136e-15
3.6525e-05
5.51782e-15
3.6525e-05
4.47395e-15
3.6525e-05
3.45174e-15
3.6525e-05
2.46212e-15
3.6525e-05
1.51113e-15
3.6525e-05
5.96545e-16
3.6525e-05
-2.84804e-16
3.6525e-05
-1.13674e-15
3.6525e-05
-1.96583e-15
3.6525e-05
-2.79486e-15
3.6525e-05
-3.67473e-15
3.6525e-05
-4.76799e-15
3.6525e-05
-6.5341e-15
3.6525e-05
-9.95658e-15
3.6525e-05
-1.49744e-14
-5.45524e-15
3.85687e-05
1.038e-14
3.85687e-05
9.12737e-15
3.85687e-05
7.45885e-15
3.85687e-05
6.44461e-15
3.85687e-05
5.53334e-15
3.85687e-05
4.50207e-15
3.85687e-05
3.48854e-15
3.85687e-05
2.50692e-15
3.85687e-05
1.56174e-15
3.85687e-05
6.50551e-16
3.85687e-05
-2.29575e-16
3.85687e-05
-1.08218e-15
3.85687e-05
-1.91362e-15
3.85687e-05
-2.74656e-15
3.85687e-05
-3.63221e-15
3.85687e-05
-4.73631e-15
3.85687e-05
-6.52733e-15
3.85687e-05
-1.00086e-14
3.85687e-05
-1.51126e-14
-5.66531e-15
4.07136e-05
1.00832e-14
4.07136e-05
8.89636e-15
4.07136e-05
7.29264e-15
4.07136e-05
6.31042e-15
4.07136e-05
5.42987e-15
4.07136e-05
4.42934e-15
4.07136e-05
3.44222e-15
4.07136e-05
2.48592e-15
4.07136e-05
1.56446e-15
4.07136e-05
6.75567e-16
4.07136e-05
-1.83262e-16
4.07136e-05
-1.01516e-15
4.07136e-05
-1.82603e-15
4.07136e-05
-2.63818e-15
4.07136e-05
-3.50247e-15
4.07136e-05
-4.58457e-15
4.07136e-05
-6.35368e-15
4.07136e-05
-9.8223e-15
4.07136e-05
-1.49878e-14
-5.69687e-15
4.29628e-05
9.52773e-15
4.29628e-05
8.43295e-15
4.29628e-05
6.93032e-15
4.29628e-05
6.00316e-15
4.29628e-05
5.17461e-15
4.29628e-05
4.23048e-15
4.29628e-05
3.29591e-15
4.29628e-05
2.39112e-15
4.29628e-05
1.51951e-15
4.29628e-05
6.78816e-16
4.29628e-05
-1.33135e-16
4.29628e-05
-9.19153e-16
4.29628e-05
-1.6848e-15
4.29628e-05
-2.45148e-15
4.29628e-05
-3.26865e-15
4.29628e-05
-4.29786e-15
4.29628e-05
-5.99779e-15
4.29628e-05
-9.36993e-15
4.29628e-05
-1.45253e-14
-5.53684e-15
4.53188e-05
8.67868e-15
4.53188e-05
7.70764e-15
4.53188e-05
6.35264e-15
4.53188e-05
5.51028e-15
4.53188e-05
4.75942e-15
4.53188e-05
3.90133e-15
4.53188e-05
3.04752e-15
4.53188e-05
2.2206e-15
4.53188e-05
1.4239e-15
4.53188e-05
6.55385e-16
4.53188e-05
-8.65448e-17
4.53188e-05
-8.04131e-16
4.53188e-05
-1.50225e-15
4.53188e-05
-2.20079e-15
4.53188e-05
-2.94616e-15
4.53188e-05
-3.89047e-15
4.53188e-05
-5.46589e-15
4.53188e-05
-8.62408e-15
4.53188e-05
-1.35609e-14
-5.1765e-15
4.77843e-05
7.54511e-15
4.77843e-05
6.72628e-15
4.77843e-05
5.56162e-15
4.77843e-05
4.83205e-15
4.77843e-05
4.1817e-15
4.77843e-05
3.43791e-15
4.77843e-05
2.69218e-15
4.77843e-05
1.96845e-15
4.77843e-05
1.27076e-15
4.77843e-05
5.9746e-16
4.77843e-05
-5.22602e-17
4.77843e-05
-6.7988e-16
4.77843e-05
-1.28931e-15
4.77843e-05
-1.89825e-15
4.77843e-05
-2.54835e-15
4.77843e-05
-3.37653e-15
4.77843e-05
-4.77017e-15
4.77843e-05
-7.58073e-15
4.77843e-05
-1.20015e-14
-4.61692e-15
5.03616e-05
6.2042e-15
5.03616e-05
5.55475e-15
5.03616e-05
4.61042e-15
5.03616e-05
4.01469e-15
5.03616e-05
3.4804e-15
5.03616e-05
2.87281e-15
5.03616e-05
2.25576e-15
5.03616e-05
1.65435e-15
5.03616e-05
1.07378e-15
5.03616e-05
5.12935e-16
5.03616e-05
-2.81024e-17
5.03616e-05
-5.49914e-16
5.03616e-05
-1.05525e-15
5.03616e-05
-1.55906e-15
5.03616e-05
-2.09688e-15
5.03616e-05
-2.78583e-15
5.03616e-05
-3.95405e-15
5.03616e-05
-6.31401e-15
5.03616e-05
-1.0002e-14
-3.88931e-15
5.30532e-05
4.77505e-15
5.30532e-05
4.29833e-15
5.30532e-05
3.58367e-15
5.30532e-05
3.13026e-15
5.30532e-05
2.71699e-15
5.30532e-05
2.25576e-15
5.30532e-05
1.77669e-15
5.30532e-05
1.30673e-15
5.30532e-05
8.52172e-16
5.30532e-05
4.12413e-16
5.30532e-05
-1.16184e-17
5.30532e-05
-4.19636e-16
5.30532e-05
-8.13226e-16
5.30532e-05
-1.20424e-15
5.30532e-05
-1.62141e-15
5.30532e-05
-2.15926e-15
5.30532e-05
-3.07879e-15
5.30532e-05
-4.93614e-15
5.30532e-05
-7.80329e-15
-3.06081e-15
5.58617e-05
3.39834e-15
5.58617e-05
3.07782e-15
5.58617e-05
2.57555e-15
5.58617e-05
2.25736e-15
5.58617e-05
1.95873e-15
5.58617e-05
1.63735e-15
5.58617e-05
1.29268e-15
5.58617e-05
9.51244e-16
5.58617e-05
6.2049e-16
5.58617e-05
3.00205e-16
5.58617e-05
-8.04523e-18
5.58617e-05
-3.03276e-16
5.58617e-05
-5.86077e-16
5.58617e-05
-8.65044e-16
5.58617e-05
-1.16203e-15
5.58617e-05
-1.54803e-15
5.58617e-05
-2.21533e-15
5.58617e-05
-3.5636e-15
5.58617e-05
-5.60905e-15
-2.20967e-15
5.87904e-05
2.20459e-15
5.87904e-05
2.0088e-15
5.87904e-05
1.68064e-15
5.87904e-05
1.47666e-15
5.87904e-05
1.27665e-15
5.87904e-05
1.07054e-15
5.87904e-05
8.45604e-16
5.87904e-05
6.17927e-16
5.87904e-05
3.97531e-16
5.87904e-05
1.84556e-16
5.87904e-05
-1.91307e-17
5.87904e-05
-2.12141e-16
5.87904e-05
-3.94334e-16
5.87904e-05
-5.71208e-16
5.87904e-05
-7.58235e-16
5.87904e-05
-1.00399e-15
5.87904e-05
-1.4372e-15
5.87904e-05
-2.31814e-15
5.87904e-05
-3.6277e-15
-1.42176e-15
6.18433e-05
1.28174e-15
6.18433e-05
1.17432e-15
6.18433e-05
9.71933e-16
6.18433e-05
8.52411e-16
6.18433e-05
7.28368e-16
6.18433e-05
6.03245e-16
6.18433e-05
4.74383e-16
6.18433e-05
3.36525e-16
6.18433e-05
2.04146e-16
6.18433e-05
7.76293e-17
6.18433e-05
-4.12052e-17
6.18433e-05
-1.50869e-16
6.18433e-05
-2.50769e-16
6.18433e-05
-3.43876e-16
6.18433e-05
-4.40137e-16
6.18433e-05
-5.68848e-16
6.18433e-05
-8.0609e-16
6.18433e-05
-1.30257e-15
6.18433e-05
-2.02777e-15
-7.72921e-16
6.50254e-05
6.63294e-16
6.50254e-05
6.08443e-16
6.50254e-05
4.87133e-16
6.50254e-05
4.12457e-16
6.50254e-05
3.38155e-16
6.50254e-05
2.63926e-16
6.50254e-05
1.99803e-16
6.50254e-05
1.25173e-16
6.50254e-05
5.53626e-17
6.50254e-05
-9.26506e-18
6.50254e-05
-6.70904e-17
6.50254e-05
-1.16692e-16
6.50254e-05
-1.57165e-16
6.50254e-05
-1.89991e-16
6.50254e-05
-2.20553e-16
6.50254e-05
-2.63546e-16
6.50254e-05
-3.57433e-16
6.50254e-05
-5.74933e-16
6.50254e-05
-8.97006e-16
-3.00424e-16
6.83425e-05
3.25665e-16
6.83425e-05
2.9605e-16
6.83425e-05
2.17933e-16
6.83425e-05
1.42401e-16
6.83425e-05
9.19734e-17
6.83425e-05
4.70622e-17
6.83425e-05
1.49406e-17
6.83425e-05
-2.23834e-17
6.83425e-05
-5.51946e-17
6.83425e-05
-8.12441e-17
6.83425e-05
-9.91402e-17
6.83425e-05
-1.09446e-16
6.83425e-05
-1.11827e-16
6.83425e-05
-1.0675e-16
6.83425e-05
-9.41098e-17
6.83425e-05
-8.06407e-17
6.83425e-05
-7.89859e-17
6.83425e-05
-1.1816e-16
6.83425e-05
-1.97788e-16
1.92437e-17
7.18013e-05
-9.22013e-18
7.18013e-05
1.90072e-18
7.18013e-05
3.33784e-17
7.18013e-05
2.89887e-18
7.18013e-05
8.01757e-17
7.18013e-05
5.79415e-17
7.18013e-05
2.86669e-17
7.18013e-05
5.40936e-19
7.18013e-05
-2.23859e-17
7.18013e-05
-3.62702e-17
7.18013e-05
-3.95869e-17
7.18013e-05
-3.3747e-17
7.18013e-05
-1.99849e-17
7.18013e-05
8.77951e-19
7.18013e-05
2.65895e-17
7.18013e-05
4.373e-17
7.18013e-05
2.90231e-17
7.18013e-05
1.37527e-17
7.18013e-05
-1.05612e-16
-5.30619e-17
7.54088e-05
2.59358e-17
7.54088e-05
4.58304e-18
7.54088e-05
6.95045e-18
7.54088e-05
1.6484e-17
7.54088e-05
9.47168e-17
7.54088e-05
6.52699e-17
7.54088e-05
3.08682e-17
7.54088e-05
-3.46821e-18
7.54088e-05
-3.01153e-17
7.54088e-05
-4.59405e-17
7.54088e-05
-5.06922e-17
7.54088e-05
-4.55088e-17
7.54088e-05
-3.12843e-17
7.54088e-05
-8.77639e-18
7.54088e-05
1.83583e-17
7.54088e-05
3.81609e-17
7.54088e-05
2.19414e-17
7.54088e-05
1.40996e-17
7.54088e-05
-8.94977e-17
-3.25063e-17
7.91729e-05
3.76151e-16
7.91729e-05
3.04167e-16
7.91729e-05
1.68703e-16
7.91729e-05
1.20619e-16
7.91729e-05
6.08291e-17
7.91729e-05
3.43037e-19
7.91729e-05
-4.6036e-17
7.91729e-05
-9.08042e-17
7.91729e-05
-1.25218e-16
7.91729e-05
-1.4802e-16
7.91729e-05
-1.59982e-16
7.91729e-05
-1.62078e-16
7.91729e-05
-1.54409e-16
7.91729e-05
-1.37752e-16
7.91729e-05
-1.11827e-16
7.91729e-05
-7.91468e-17
7.91729e-05
-4.22569e-17
7.91729e-05
-1.87826e-17
7.91729e-05
3.37942e-17
2.11307e-16
8.31014e-05
5.5112e-16
8.31014e-05
4.63014e-16
8.31014e-05
3.14674e-16
8.31014e-05
2.24857e-16
8.31014e-05
1.435e-16
8.31014e-05
6.40657e-17
8.31014e-05
1.69786e-18
8.31014e-05
-5.76156e-17
8.31014e-05
-1.07096e-16
8.31014e-05
-1.4571e-16
8.31014e-05
-1.73356e-16
8.31014e-05
-1.89924e-16
8.31014e-05
-1.95885e-16
8.31014e-05
-1.93093e-16
8.31014e-05
-1.839e-16
8.31014e-05
-1.73097e-16
8.31014e-05
-1.696e-16
8.31014e-05
-1.86397e-16
8.31014e-05
-1.7157e-16
1.83904e-16
8.72026e-05
7.23697e-16
8.72026e-05
6.22444e-16
8.72026e-05
4.53815e-16
8.72026e-05
3.41096e-16
8.72026e-05
2.3947e-16
8.72026e-05
1.39072e-16
8.72026e-05
5.63786e-17
8.72026e-05
-2.25396e-17
8.72026e-05
-9.00702e-17
8.72026e-05
-1.45508e-16
8.72026e-05
-1.88993e-16
8.72026e-05
-2.20787e-16
8.72026e-05
-2.41565e-16
8.72026e-05
-2.53296e-16
8.72026e-05
-2.60886e-16
8.72026e-05
-2.72011e-16
8.72026e-05
-3.00513e-16
8.72026e-05
-3.60875e-16
8.72026e-05
-3.73717e-16
1.54338e-16
9.14853e-05
8.39726e-16
9.14853e-05
7.30979e-16
9.14853e-05
5.5181e-16
9.14853e-05
4.21228e-16
9.14853e-05
3.10124e-16
9.14853e-05
1.99611e-16
9.14853e-05
1.05547e-16
9.14853e-05
1.51947e-17
9.14853e-05
-6.36273e-17
9.14853e-05
-1.30451e-16
9.14853e-05
-1.85591e-16
9.14853e-05
-2.2957e-16
9.14853e-05
-2.63452e-16
9.14853e-05
-2.89915e-16
9.14853e-05
-3.15274e-16
9.14853e-05
-3.4984e-16
9.14853e-05
-4.10509e-16
9.14853e-05
-5.09187e-16
9.14853e-05
-5.39586e-16
1.12345e-16
9.59584e-05
8.36219e-16
9.59584e-05
7.26777e-16
9.59584e-05
5.60482e-16
9.59584e-05
4.49415e-16
9.59584e-05
3.50111e-16
9.59584e-05
2.48985e-16
9.59584e-05
1.6072e-16
9.59584e-05
7.34408e-17
9.59584e-05
-5.52022e-18
9.59584e-05
-7.56706e-17
9.59584e-05
-1.37217e-16
9.59584e-05
-1.90664e-16
9.59584e-05
-2.37284e-16
9.59584e-05
-2.80455e-16
9.59584e-05
-3.26957e-16
9.59584e-05
-3.88908e-16
9.59584e-05
-4.85125e-16
9.59584e-05
-6.25318e-16
9.59584e-05
-6.7383e-16
2.03111e-17
0.000100631
8.44201e-16
0.000100631
7.34498e-16
0.000100631
5.75279e-16
0.000100631
4.76753e-16
0.000100631
3.80872e-16
0.000100631
2.82694e-16
0.000100631
1.95891e-16
0.000100631
1.08626e-16
0.000100631
2.80878e-17
0.000100631
-4.51891e-17
0.000100631
-1.11409e-16
0.000100631
-1.7119e-16
0.000100631
-2.26121e-16
0.000100631
-2.80303e-16
0.000100631
-3.40673e-16
0.000100631
-4.2086e-16
0.000100631
-5.40601e-16
0.000100631
-7.08033e-16
0.000100631
-7.51075e-16
-3.19319e-17
0.000105514
8.53272e-16
0.000105514
7.52307e-16
0.000105514
6.04701e-16
0.000105514
5.02345e-16
0.000105514
4.06812e-16
0.000105514
3.07947e-16
0.000105514
2.19252e-16
0.000105514
1.29311e-16
0.000105514
4.54616e-17
0.000105514
-3.18301e-17
0.000105514
-1.02845e-16
0.000105514
-1.68303e-16
0.000105514
-2.29983e-16
0.000105514
-2.92078e-16
0.000105514
-3.61731e-16
0.000105514
-4.52822e-16
0.000105514
-5.84642e-16
0.000105514
-7.59939e-16
0.000105514
-7.8641e-16
-5.13237e-17
0.000110617
7.93007e-16
0.000110617
7.05072e-16
0.000110617
5.79511e-16
0.000110617
4.86409e-16
0.000110617
3.99609e-16
0.000110617
3.09487e-16
0.000110617
2.28368e-16
0.000110617
1.44656e-16
0.000110617
6.53793e-17
0.000110617
-9.01048e-18
0.000110617
-7.87929e-17
0.000110617
-1.44711e-16
0.000110617
-2.08611e-16
0.000110617
-2.74269e-16
0.000110617
-3.48702e-16
0.000110617
-4.45089e-16
0.000110617
-5.81096e-16
0.000110617
-7.55953e-16
0.000110617
-7.87388e-16
-7.83796e-17
0.000115952
6.95909e-16
0.000115952
6.23555e-16
0.000115952
5.23696e-16
0.000115952
4.45952e-16
0.000115952
3.72462e-16
0.000115952
2.95318e-16
0.000115952
2.25847e-16
0.000115952
1.52332e-16
0.000115952
8.14326e-17
0.000115952
1.36643e-17
0.000115952
-5.12163e-17
0.000115952
-1.13919e-16
0.000115952
-1.76175e-16
0.000115952
-2.4122e-16
0.000115952
-3.15635e-16
0.000115952
-4.11426e-16
0.000115952
-5.44388e-16
0.000115952
-7.12141e-16
0.000115952
-7.61148e-16
-1.03408e-16
0.00012153
5.7566e-16
0.00012153
5.2103e-16
0.00012153
4.4833e-16
0.00012153
3.87977e-16
0.00012153
3.29895e-16
0.00012153
2.68048e-16
0.00012153
2.12566e-16
0.00012153
1.51957e-16
0.00012153
9.21672e-17
0.00012153
3.38088e-17
0.00012153
-2.33349e-17
0.00012153
-7.98976e-17
0.00012153
-1.37286e-16
0.00012153
-1.98312e-16
0.00012153
-2.68836e-16
0.00012153
-3.59434e-16
0.00012153
-4.84115e-16
0.00012153
-6.40746e-16
0.00012153
-7.06768e-16
-1.23184e-16
0.000127365
4.42623e-16
0.000127365
4.06243e-16
0.000127365
3.60912e-16
0.000127365
3.18346e-16
0.000127365
2.76332e-16
0.000127365
2.30614e-16
0.000127365
1.89725e-16
0.000127365
1.43308e-16
0.000127365
9.6174e-17
0.000127365
4.89949e-17
0.000127365
1.6018e-18
0.000127365
-4.64897e-17
0.000127365
-9.63534e-17
0.000127365
-1.50385e-16
0.000127365
-2.13517e-16
0.000127365
-2.94741e-16
0.000127365
-4.06369e-16
0.000127365
-5.4791e-16
0.000127365
-6.2448e-16
-1.35085e-16
0.000133472
3.06337e-16
0.000133472
2.87196e-16
0.000133472
2.67355e-16
0.000133472
2.41376e-16
0.000133472
2.14729e-16
0.000133472
1.84637e-16
0.000133472
1.57465e-16
0.000133472
1.25349e-16
0.000133472
9.13514e-17
0.000133472
5.62377e-17
0.000133472
1.99079e-17
0.000133472
-1.79619e-17
0.000133472
-5.81844e-17
0.000133472
-1.02589e-16
0.000133472
-1.55006e-16
0.000133472
-2.22527e-16
0.000133472
-3.15254e-16
0.000133472
-4.338e-16
0.000133472
-5.10186e-16
-1.36906e-16
0.000139864
1.78804e-16
0.000139864
1.74633e-16
0.000139864
1.7566e-16
0.000139864
1.63319e-16
0.000139864
1.49812e-16
0.000139864
1.33406e-16
0.000139864
1.17862e-16
0.000139864
9.89439e-17
0.000139864
7.74217e-17
0.000139864
5.42649e-17
0.000139864
2.94311e-17
0.000139864
2.72848e-18
0.000139864
-2.6375e-17
0.000139864
-5.91243e-17
0.000139864
-9.81892e-17
0.000139864
-1.48616e-16
0.000139864
-2.17939e-16
0.000139864
-3.07193e-16
0.000139864
-3.72857e-16
-1.26525e-16
0.000146561
7.26024e-17
0.000146561
7.96228e-17
0.000146561
9.50056e-17
0.000146561
9.16758e-17
0.000146561
8.75247e-17
0.000146561
8.13734e-17
0.000146561
7.45656e-17
0.000146561
6.61516e-17
0.000146561
5.52893e-17
0.000146561
4.29404e-17
0.000146561
2.91018e-17
0.000146561
1.37004e-17
0.000146561
-3.55378e-18
0.000146561
-2.3384e-17
0.000146561
-4.74068e-17
0.000146561
-7.87834e-17
0.000146561
-1.22641e-16
0.000146561
-1.80544e-16
0.000146561
-2.31724e-16
-1.02066e-16
0.000153579
-1.37598e-18
0.000153579
1.16617e-17
0.000153579
3.3082e-17
0.000153579
3.25219e-17
0.000153579
3.24187e-17
0.000153579
3.15638e-17
0.000153579
2.99274e-17
0.000153579
2.79354e-17
0.000153579
2.48329e-17
0.000153579
2.11484e-17
0.000153579
1.6917e-17
0.000153579
1.21706e-17
0.000153579
6.75957e-18
0.000153579
4.75297e-19
0.000153579
-7.40726e-18
0.000153579
-1.86726e-17
0.000153579
-3.62212e-17
0.000153579
-6.2028e-17
0.000153579
-9.45625e-17
-6.16601e-17
0.00016094
-3.47386e-17
0.00016094
-2.15482e-17
0.00016094
-3.72304e-18
0.00016094
-8.77417e-18
0.00016094
-1.11826e-17
0.00016094
-1.30052e-17
0.00016094
-1.39445e-17
0.00016094
-1.38626e-17
0.00016094
-1.29478e-17
0.00016094
-1.09681e-17
0.00016094
-7.76594e-18
0.00016094
-3.26813e-18
0.00016094
2.48289e-18
0.00016094
9.54861e-18
0.00016094
1.77815e-17
0.00016094
2.65436e-17
0.00016094
3.46686e-17
0.00016094
3.9969e-17
0.00016094
2.99445e-17
-5.7442e-18
0.000168667
-2.36769e-17
0.000168667
-1.58868e-17
0.000168667
-1.14294e-17
0.000168667
-2.82113e-17
0.000168667
-3.94078e-17
0.000168667
-4.88031e-17
0.000168667
-5.38328e-17
0.000168667
-5.63785e-17
0.000168667
-5.56212e-17
0.000168667
-5.1355e-17
0.000168667
-4.36026e-17
0.000168667
-3.20972e-17
0.000168667
-1.67893e-17
0.000168667
2.38433e-18
0.000168667
2.55348e-17
0.000168667
5.28912e-17
0.000168667
8.43117e-17
0.000168667
1.17421e-16
0.000168667
1.32252e-16
6.17943e-17
0.000176786
3.27376e-17
0.000176786
2.55156e-17
0.000176786
8.75243e-18
0.000176786
-2.51452e-17
0.000176786
-5.0177e-17
0.000176786
-7.22885e-17
0.000176786
-8.51969e-17
0.000176786
-9.50791e-17
0.000176786
-9.8777e-17
0.000176786
-9.54949e-17
0.000176786
-8.64973e-17
0.000176786
-7.10227e-17
0.000176786
-4.89577e-17
0.000176786
-2.02268e-17
0.000176786
1.53356e-17
0.000176786
5.8131e-17
0.000176786
1.08459e-16
0.000176786
1.63435e-16
0.000176786
2.02611e-16
1.33483e-16
0.000185325
1.12124e-16
0.000185325
9.03348e-17
0.000185325
4.96181e-17
0.000185325
-2.89499e-18
0.000185325
-4.33598e-17
0.000185325
-7.98978e-17
0.000185325
-1.03189e-16
0.000185325
-1.23181e-16
0.000185325
-1.34465e-16
0.000185325
-1.35642e-16
0.000185325
-1.28081e-16
0.000185325
-1.12028e-16
0.000185325
-8.6894e-17
0.000185325
-5.25849e-17
0.000185325
-8.99789e-18
0.000185325
4.41536e-17
0.000185325
1.07153e-16
0.000185325
1.76459e-16
0.000185325
2.37098e-16
1.93913e-16
0.000194319
1.83018e-16
0.000194319
1.59938e-16
0.000194319
9.8222e-17
0.000194319
3.01845e-17
0.000194319
-2.23389e-17
0.000194319
-7.05082e-17
0.000194319
-1.04682e-16
0.000194319
-1.34444e-16
0.000194319
-1.53848e-16
0.000194319
-1.61899e-16
0.000194319
-1.57264e-16
0.000194319
-1.4384e-16
0.000194319
-1.19941e-16
0.000194319
-8.49714e-17
0.000194319
-3.91229e-17
0.000194319
1.77042e-17
0.000194319
8.55894e-17
0.000194319
1.59852e-16
0.000194319
2.30653e-16
2.2732e-16
0.000203807
2.2677e-16
0.000203807
2.08116e-16
0.000203807
1.37581e-16
0.000203807
6.05746e-17
0.000203807
3.48134e-18
0.000203807
-4.97038e-17
0.000203807
-9.20845e-17
0.000203807
-1.28096e-16
0.000203807
-1.53394e-16
0.000203807
-1.67503e-16
0.000203807
-1.67472e-16
0.000203807
-1.58003e-16
0.000203807
-1.38515e-16
0.000203807
-1.07366e-16
0.000203807
-6.49775e-17
0.000203807
-1.13543e-17