/*--------------------------------*- C++ -*----------------------------------*\
  =========                 |
  \\      /  F ield         | OpenFOAM: The Open Source CFD Toolbox
   \\    /   O peration     | Website:  https://openfoam.org
    \\  /    A nd           | Version:  6
     \\/     M anipulation  |
\*---------------------------------------------------------------------------*/
FoamFile
{
    version     2.0;
    format      ascii;
    class       volVectorField;
    location    "19.44";
    object      U;
}
// * * * * * * * * * * * * * * * * * * * * * * * * * * * * * * * * * * * * * //

dimensions      [0 1 -1 0 0 0 0];

internalField   nonuniform List<vector> 
1380
(
(1.01493 5.78251e-10 0)
(1.01493 5.99425e-10 0)
(1.01493 5.73011e-10 0)
(1.01493 5.13446e-10 0)
(1.01493 4.2117e-10 0)
(1.01493 3.24938e-10 0)
(1.01493 2.27108e-10 0)
(1.01493 1.26585e-10 0)
(1.01493 2.55289e-11 0)
(1.01493 -7.22764e-11 0)
(1.01493 -1.63522e-10 0)
(1.01493 -2.48094e-10 0)
(1.01493 -3.21695e-10 0)
(1.01493 -3.84381e-10 0)
(1.01493 -4.39844e-10 0)
(1.01493 -4.60823e-10 0)
(1.01493 -4.536e-10 0)
(1.01493 -4.27459e-10 0)
(1.01493 -3.52978e-10 0)
(1.01493 -6.59939e-11 0)
(1.25197 -1.20463e-09 0)
(1.25197 -8.99003e-10 0)
(1.25197 -4.7586e-10 0)
(1.25197 -3.51657e-10 0)
(1.25197 -2.31277e-10 0)
(1.25197 -1.30947e-10 0)
(1.25197 -5.94917e-11 0)
(1.25197 -1.37093e-11 0)
(1.25197 1.45025e-11 0)
(1.25197 3.02928e-11 0)
(1.25197 4.01081e-11 0)
(1.25197 4.79274e-11 0)
(1.25197 6.10421e-11 0)
(1.25197 8.52058e-11 0)
(1.25197 1.27076e-10 0)
(1.25197 1.90354e-10 0)
(1.25197 2.94551e-10 0)
(1.25197 4.23903e-10 0)
(1.25197 1.34964e-09 0)
(1.25197 7.00247e-10 0)
(1.36519 -1.02735e-09 0)
(1.36519 -8.11298e-10 0)
(1.36519 -4.76567e-10 0)
(1.36519 -3.34944e-10 0)
(1.36519 -2.49781e-10 0)
(1.36519 -1.50909e-10 0)
(1.36519 -8.07823e-11 0)
(1.36519 -3.11582e-11 0)
(1.36519 6.41927e-13 0)
(1.36519 2.03637e-11 0)
(1.36519 3.53285e-11 0)
(1.36519 4.76377e-11 0)
(1.36519 6.0731e-11 0)
(1.36519 7.94344e-11 0)
(1.36519 1.07019e-10 0)
(1.36519 1.51942e-10 0)
(1.36519 2.24594e-10 0)
(1.36519 4.21423e-10 0)
(1.36519 1.29652e-09 0)
(1.36519 7.19413e-10 0)
(1.44543 -1.09431e-09 0)
(1.44543 -9.48979e-10 0)
(1.44543 -6.64661e-10 0)
(1.44543 -5.10759e-10 0)
(1.44543 -4.03103e-10 0)
(1.44543 -2.7453e-10 0)
(1.44543 -1.62388e-10 0)
(1.44543 -6.76505e-11 0)
(1.44543 1.01878e-11 0)
(1.44543 7.27163e-11 0)
(1.44543 1.23614e-10 0)
(1.44543 1.64673e-10 0)
(1.44543 2.02674e-10 0)
(1.44543 2.33994e-10 0)
(1.44543 2.6005e-10 0)
(1.44543 2.85734e-10 0)
(1.44543 3.21855e-10 0)
(1.44543 4.9248e-10 0)
(1.44543 1.27907e-09 0)
(1.44543 6.7811e-10 0)
(1.50772 -9.99274e-10 0)
(1.50772 -9.18482e-10 0)
(1.50772 -6.51605e-10 0)
(1.50772 -4.88687e-10 0)
(1.50772 -3.69931e-10 0)
(1.50772 -2.33462e-10 0)
(1.50772 -1.13353e-10 0)
(1.50772 -1.22551e-11 0)
(1.50772 6.9229e-11 0)
(1.50772 1.32454e-10 0)
(1.50772 1.7947e-10 0)
(1.50772 2.12171e-10 0)
(1.50772 2.32429e-10 0)
(1.50772 2.40351e-10 0)
(1.50772 2.36093e-10 0)
(1.50772 2.25477e-10 0)
(1.50772 2.2127e-10 0)
(1.50772 3.7316e-10 0)
(1.50772 1.10929e-09 0)
(1.50772 5.55965e-10 0)
(1.5587 -9.04707e-10 0)
(1.5587 -8.49747e-10 0)
(1.5587 -6.09737e-10 0)
(1.5587 -4.49839e-10 0)
(1.5587 -3.30756e-10 0)
(1.5587 -1.93742e-10 0)
(1.5587 -7.27636e-11 0)
(1.5587 2.91788e-11 0)
(1.5587 1.10695e-10 0)
(1.5587 1.72244e-10 0)
(1.5587 2.14818e-10 0)
(1.5587 2.39845e-10 0)
(1.5587 2.42751e-10 0)
(1.5587 2.30986e-10 0)
(1.5587 2.04992e-10 0)
(1.5587 1.64405e-10 0)
(1.5587 1.30337e-10 0)
(1.5587 2.65421e-10 0)
(1.5587 9.47382e-10 0)
(1.5587 4.57848e-10 0)
(1.6019 -8.05867e-10 0)
(1.6019 -7.62775e-10 0)
(1.6019 -5.38603e-10 0)
(1.6019 -3.80382e-10 0)
(1.6019 -2.61597e-10 0)
(1.6019 -1.26027e-10 0)
(1.6019 -8.97679e-12 0)
(1.6019 8.75745e-11 0)
(1.6019 1.61874e-10 0)
(1.6019 2.13942e-10 0)
(1.6019 2.44831e-10 0)
(1.6019 2.49482e-10 0)
(1.6019 2.35823e-10 0)
(1.6019 2.03457e-10 0)
(1.6019 1.50099e-10 0)
(1.6019 8.03826e-11 0)
(1.6019 1.94331e-11 0)
(1.6019 1.30181e-10 0)
(1.6019 7.59157e-10 0)
(1.6019 3.48052e-10 0)
(1.63942 -6.84622e-10 0)
(1.63942 -6.56251e-10 0)
(1.63942 -4.51045e-10 0)
(1.63942 -2.98751e-10 0)
(1.63942 -1.84358e-10 0)
(1.63942 -5.63541e-11 0)
(1.63942 5.17669e-11 0)
(1.63942 1.38603e-10 0)
(1.63942 2.02136e-10 0)
(1.63942 2.42615e-10 0)
(1.63942 2.56816e-10 0)
(1.63942 2.45738e-10 0)
(1.63942 2.1705e-10 0)
(1.63942 1.64147e-10 0)
(1.63942 8.85775e-11 0)
(1.63942 -4.49064e-12 0)
(1.63942 -8.6296e-11 0)
(1.63942 -5.9805e-12 0)
(1.63942 5.70488e-10 0)
(1.63942 2.50043e-10 0)
(1.67258 -5.53092e-10 0)
(1.67258 -5.3878e-10 0)
(1.67258 -3.54028e-10 0)
(1.67258 -2.10412e-10 0)
(1.67258 -1.02416e-10 0)
(1.67258 1.46802e-11 0)
(1.67258 1.11314e-10 0)
(1.67258 1.86206e-10 0)
(1.67258 2.37282e-10 0)
(1.67258 2.64009e-10 0)
(1.67258 2.59293e-10 0)
(1.67258 2.38141e-10 0)
(1.67258 1.91867e-10 0)
(1.67258 1.20952e-10 0)
(1.67258 2.6336e-11 0)
(1.67258 -8.67921e-11 0)
(1.67258 -1.93831e-10 0)
(1.67258 -1.38524e-10 0)
(1.67258 3.77493e-10 0)
(1.67258 1.50187e-10 0)
(1.70229 -4.03893e-10 0)
(1.70229 -4.07221e-10 0)
(1.70229 -2.47029e-10 0)
(1.70229 -1.15901e-10 0)
(1.70229 -1.75536e-11 0)
(1.70229 8.54095e-11 0)
(1.70229 1.678e-10 0)
(1.70229 2.28652e-10 0)
(1.70229 2.65867e-10 0)
(1.70229 2.7437e-10 0)
(1.70229 2.59312e-10 0)
(1.70229 2.23372e-10 0)
(1.70229 1.62011e-10 0)
(1.70229 7.5908e-11 0)
(1.70229 -3.40907e-11 0)
(1.70229 -1.63313e-10 0)
(1.70229 -2.93915e-10 0)
(1.70229 -2.68807e-10 0)
(1.70229 1.51759e-10 0)
(1.70229 5.73424e-11 0)
(1.7292 -2.84078e-10 0)
(1.7292 -2.73642e-10 0)
(1.7292 -1.37409e-10 0)
(1.7292 -2.15941e-11 0)
(1.7292 6.50589e-11 0)
(1.7292 1.52145e-10 0)
(1.7292 2.18784e-10 0)
(1.7292 2.64689e-10 0)
(1.7292 2.86399e-10 0)
(1.7292 2.78939e-10 0)
(1.7292 2.53071e-10 0)
(1.7292 2.02886e-10 0)
(1.7292 1.28183e-10 0)
(1.7292 2.90685e-11 0)
(1.7292 -9.36327e-11 0)
(1.7292 -2.35921e-10 0)
(1.7292 -3.85392e-10 0)
(1.7292 -3.86481e-10 0)
(1.7292 -5.47359e-11 0)
(1.7292 -6.66495e-12 0)
(1.75376 -1.57548e-10 0)
(1.75376 -1.35048e-10 0)
(1.75376 -2.46166e-11 0)
(1.75376 7.36686e-11 0)
(1.75376 1.46727e-10 0)
(1.75376 2.16535e-10 0)
(1.75376 2.66122e-10 0)
(1.75376 2.95801e-10 0)
(1.75376 2.98892e-10 0)
(1.75376 2.81684e-10 0)
(1.75376 2.42265e-10 0)
(1.75376 1.79228e-10 0)
(1.75376 9.25671e-11 0)
(1.75376 -1.7743e-11 0)
(1.75376 -1.50861e-10 0)
(1.75376 -3.02838e-10 0)
(1.75376 -4.61047e-10 0)
(1.75376 -4.98752e-10 0)
(1.75376 -2.56523e-10 0)
(1.75376 -8.82472e-11 0)
(1.77634 -2.60825e-11 0)
(1.77634 6.06367e-12 0)
(1.77634 8.86234e-11 0)
(1.77634 1.67584e-10 0)
(1.77634 2.25457e-10 0)
(1.77634 2.77236e-10 0)
(1.77634 3.09049e-10 0)
(1.77634 3.20624e-10 0)
(1.77634 3.10296e-10 0)
(1.77634 2.79814e-10 0)
(1.77634 2.27532e-10 0)
(1.77634 1.52964e-10 0)
(1.77634 5.58733e-11 0)
(1.77634 -6.37227e-11 0)
(1.77634 -2.05083e-10 0)
(1.77634 -3.64682e-10 0)
(1.77634 -5.3065e-10 0)
(1.77634 -6.08144e-10 0)
(1.77634 -4.57081e-10 0)
(1.77634 -1.65759e-10 0)
(1.79721 1.09125e-10 0)
(1.79721 1.50203e-10 0)
(1.79721 2.02853e-10 0)
(1.79721 2.60861e-10 0)
(1.79721 3.01712e-10 0)
(1.79721 3.34396e-10 0)
(1.79721 3.4737e-10 0)
(1.79721 3.42235e-10 0)
(1.79721 3.18533e-10 0)
(1.79721 2.7487e-10 0)
(1.79721 2.1065e-10 0)
(1.79721 1.25519e-10 0)
(1.79721 1.92972e-11 0)
(1.79721 -1.08025e-10 0)
(1.79721 -2.55931e-10 0)
(1.79721 -4.21765e-10 0)
(1.79721 -5.95823e-10 0)
(1.79721 -7.16626e-10 0)
(1.79721 -6.58018e-10 0)
(1.79721 -2.4165e-10 0)
(1.81657 2.78726e-10 0)
(1.81657 2.90738e-10 0)
(1.81657 3.10496e-10 0)
(1.81657 3.48363e-10 0)
(1.81657 3.71771e-10 0)
(1.81657 3.84811e-10 0)
(1.81657 3.81126e-10 0)
(1.81657 3.61383e-10 0)
(1.81657 3.23655e-10 0)
(1.81657 2.67235e-10 0)
(1.81657 1.91756e-10 0)
(1.81657 9.70114e-11 0)
(1.81657 -1.71694e-11 0)
(1.81657 -1.50914e-10 0)
(1.81657 -3.04134e-10 0)
(1.81657 -4.75703e-10 0)
(1.81657 -6.60245e-10 0)
(1.81657 -8.254e-10 0)
(1.81657 -8.60727e-10 0)
(1.81657 -3.1266e-10 0)
(1.8346 4.64978e-10 0)
(1.8346 4.2846e-10 0)
(1.8346 4.14168e-10 0)
(1.8346 4.32038e-10 0)
(1.8346 4.37579e-10 0)
(1.8346 4.30913e-10 0)
(1.8346 4.12499e-10 0)
(1.8346 3.77423e-10 0)
(1.8346 3.25724e-10 0)
(1.8346 2.56968e-10 0)
(1.8346 1.70938e-10 0)
(1.8346 6.74985e-11 0)
(1.8346 -5.35328e-11 0)
(1.8346 -1.92436e-10 0)
(1.8346 -3.4973e-10 0)
(1.8346 -5.265e-10 0)
(1.8346 -7.24321e-10 0)
(1.8346 -9.32764e-10 0)
(1.8346 -1.06207e-09 0)
(1.8346 -3.77908e-10 0)
(1.85144 6.45464e-10 0)
(1.85144 5.69182e-10 0)
(1.85144 5.19508e-10 0)
(1.85144 5.1574e-10 0)
(1.85144 5.02367e-10 0)
(1.85144 4.76792e-10 0)
(1.85144 4.41461e-10 0)
(1.85144 3.90266e-10 0)
(1.85144 3.24399e-10 0)
(1.85144 2.43507e-10 0)
(1.85144 1.47449e-10 0)
(1.85144 3.61184e-11 0)
(1.85144 -9.06949e-11 0)
(1.85144 -2.33446e-10 0)
(1.85144 -3.93354e-10 0)
(1.85144 -5.7401e-10 0)
(1.85144 -7.84985e-10 0)
(1.85144 -1.03724e-09 0)
(1.85144 -1.25948e-09 0)
(1.85144 -4.39324e-10 0)
(1.8672 8.20752e-10 0)
(1.8672 7.13995e-10 0)
(1.8672 6.29386e-10 0)
(1.8672 6.02508e-10 0)
(1.8672 5.68946e-10 0)
(1.8672 5.23782e-10 0)
(1.8672 4.69073e-10 0)
(1.8672 4.00491e-10 0)
(1.8672 3.19565e-10 0)
(1.8672 2.26079e-10 0)
(1.8672 1.1997e-10 0)
(1.8672 1.14384e-12 0)
(1.8672 -1.30661e-10 0)
(1.8672 -2.76117e-10 0)
(1.8672 -4.37235e-10 0)
(1.8672 -6.20331e-10 0)
(1.8672 -8.43392e-10 0)
(1.8672 -1.13877e-09 0)
(1.8672 -1.45198e-09 0)
(1.8672 -4.97393e-10 0)
(1.88197 1.00045e-09 0)
(1.88197 8.67961e-10 0)
(1.88197 7.44812e-10 0)
(1.88197 6.90039e-10 0)
(1.88197 6.32807e-10 0)
(1.88197 5.64481e-10 0)
(1.88197 4.87556e-10 0)
(1.88197 4.00338e-10 0)
(1.88197 3.04057e-10 0)
(1.88197 1.98489e-10 0)
(1.88197 8.34969e-11 0)
(1.88197 -4.1122e-11 0)
(1.88197 -1.75767e-10 0)
(1.88197 -3.2139e-10 0)
(1.88197 -4.8086e-10 0)
(1.88197 -6.63293e-10 0)
(1.88197 -8.95159e-10 0)
(1.88197 -1.22945e-09 0)
(1.88197 -1.62461e-09 0)
(1.88197 -5.42345e-10 0)
(1.89587 1.20068e-09 0)
(1.89587 1.0357e-09 0)
(1.89587 8.62649e-10 0)
(1.89587 7.718e-10 0)
(1.89587 6.85939e-10 0)
(1.89587 5.89333e-10 0)
(1.89587 4.88081e-10 0)
(1.89587 3.82095e-10 0)
(1.89587 2.71769e-10 0)
(1.89587 1.5645e-10 0)
(1.89587 3.55755e-11 0)
(1.89587 -9.14195e-11 0)
(1.89587 -2.25234e-10 0)
(1.89587 -3.67192e-10 0)
(1.89587 -5.21051e-10 0)
(1.89587 -6.98732e-10 0)
(1.89587 -9.35177e-10 0)
(1.89587 -1.30386e-09 0)
(1.89587 -1.777e-09 0)
(1.89587 -5.61684e-10 0)
(1.90929 1.36242e-09 0)
(1.90929 1.15777e-09 0)
(1.90929 9.3467e-10 0)
(1.90929 8.13866e-10 0)
(1.90929 7.07658e-10 0)
(1.90929 5.92973e-10 0)
(1.90929 4.80603e-10 0)
(1.90929 3.6735e-10 0)
(1.90929 2.52998e-10 0)
(1.90929 1.36116e-10 0)
(1.90929 1.55516e-11 0)
(1.90929 -1.09633e-10 0)
(1.90929 -2.40393e-10 0)
(1.90929 -3.78401e-10 0)
(1.90929 -5.28389e-10 0)
(1.90929 -7.05375e-10 0)
(1.90929 -9.53403e-10 0)
(1.90929 -1.36777e-09 0)
(1.90929 -1.93716e-09 0)
(1.90929 -6.00216e-10 0)
(1.92249 1.43672e-09 0)
(1.92249 1.2148e-09 0)
(1.92249 9.88776e-10 0)
(1.92249 8.67784e-10 0)
(1.92249 7.58775e-10 0)
(1.92249 6.39117e-10 0)
(1.92249 5.21705e-10 0)
(1.92249 4.02589e-10 0)
(1.92249 2.82295e-10 0)
(1.92249 1.59449e-10 0)
(1.92249 3.29277e-11 0)
(1.92249 -9.82152e-11 0)
(1.92249 -2.35112e-10 0)
(1.92249 -3.79981e-10 0)
(1.92249 -5.38971e-10 0)
(1.92249 -7.30538e-10 0)
(1.92249 -1.00695e-09 0)
(1.92249 -1.47711e-09 0)
(1.92249 -2.11732e-09 0)
(1.92249 -7.21048e-10 0)
(1.93544 1.20488e-09 0)
(1.93544 1.08564e-09 0)
(1.93544 9.76159e-10 0)
(1.93544 9.24025e-10 0)
(1.93544 8.62132e-10 0)
(1.93544 7.73179e-10 0)
(1.93544 6.60233e-10 0)
(1.93544 5.31702e-10 0)
(1.93544 3.91981e-10 0)
(1.93544 2.44293e-10 0)
(1.93544 9.10801e-11 0)
(1.93544 -6.59598e-11 0)
(1.93544 -2.26044e-10 0)
(1.93544 -3.90083e-10 0)
(1.93544 -5.63642e-10 0)
(1.93544 -7.65672e-10 0)
(1.93544 -1.05131e-09 0)
(1.93544 -1.53584e-09 0)
(1.93544 -2.20711e-09 0)
(1.93544 -9.39392e-10 0)
(1.94809 1.44715e-09 0)
(1.94809 1.24784e-09 0)
(1.94809 1.10113e-09 0)
(1.94809 9.85203e-10 0)
(1.94809 8.75335e-10 0)
(1.94809 7.39498e-10 0)
(1.94809 5.92901e-10 0)
(1.94809 4.39918e-10 0)
(1.94809 2.83829e-10 0)
(1.94809 1.27131e-10 0)
(1.94809 -2.78709e-11 0)
(1.94809 -1.78892e-10 0)
(1.94809 -3.24391e-10 0)
(1.94809 -4.63799e-10 0)
(1.94809 -6.03356e-10 0)
(1.94809 -7.62538e-10 0)
(1.94809 -1.00405e-09 0)
(1.94809 -1.47355e-09 0)
(1.94809 -2.21266e-09 0)
(1.94809 -7.90111e-10 0)
(1.9604 2.15178e-09 0)
(1.9604 1.85258e-09 0)
(1.9604 1.44526e-09 0)
(1.9604 1.19155e-09 0)
(1.9604 9.63329e-10 0)
(1.9604 7.25357e-10 0)
(1.9604 5.11198e-10 0)
(1.9604 3.15792e-10 0)
(1.9604 1.37074e-10 0)
(1.9604 -2.78568e-11 0)
(1.9604 -1.81267e-10 0)
(1.9604 -3.2475e-10 0)
(1.9604 -4.59558e-10 0)
(1.9604 -5.88359e-10 0)
(1.9604 -7.20298e-10 0)
(1.9604 -8.81021e-10 0)
(1.9604 -1.14846e-09 0)
(1.9604 -1.70034e-09 0)
(1.9604 -2.57195e-09 0)
(1.9604 -6.89963e-10 0)
(1.97232 2.00598e-09 0)
(1.97232 1.73212e-09 0)
(1.97232 1.39213e-09 0)
(1.97232 1.19625e-09 0)
(1.97232 1.02145e-09 0)
(1.97232 8.27275e-10 0)
(1.97232 6.39587e-10 0)
(1.97232 4.58072e-10 0)
(1.97232 2.83582e-10 0)
(1.97232 1.15424e-10 0)
(1.97232 -4.72681e-11 0)
(1.97232 -2.05405e-10 0)
(1.97232 -3.60478e-10 0)
(1.97232 -5.16647e-10 0)
(1.97232 -6.83704e-10 0)
(1.97232 -8.92391e-10 0)
(1.97232 -1.22934e-09 0)
(1.97232 -1.88181e-09 0)
(1.97232 -2.85594e-09 0)
(1.97232 -9.97033e-10 0)
(1.98378 2.09414e-09 0)
(1.98378 1.83355e-09 0)
(1.98378 1.49299e-09 0)
(1.98378 1.28738e-09 0)
(1.98378 1.10031e-09 0)
(1.98378 8.89174e-10 0)
(1.98378 6.82858e-10 0)
(1.98378 4.83275e-10 0)
(1.98378 2.91952e-10 0)
(1.98378 1.08554e-10 0)
(1.98378 -6.75226e-11 0)
(1.98378 -2.37049e-10 0)
(1.98378 -4.01337e-10 0)
(1.98378 -5.65024e-10 0)
(1.98378 -7.38284e-10 0)
(1.98378 -9.53221e-10 0)
(1.98378 -1.30055e-09 0)
(1.98378 -1.97475e-09 0)
(1.98378 -2.96791e-09 0)
(1.98378 -1.06094e-09 0)
(1.99474 2.09188e-09 0)
(1.99474 1.83538e-09 0)
(1.99474 1.49666e-09 0)
(1.99474 1.29194e-09 0)
(1.99474 1.10814e-09 0)
(1.99474 9.00616e-10 0)
(1.99474 6.97162e-10 0)
(1.99474 5.00205e-10 0)
(1.99474 3.1064e-10 0)
(1.99474 1.27916e-10 0)
(1.99474 -4.86226e-11 0)
(1.99474 -2.1975e-10 0)
(1.99474 -3.86804e-10 0)
(1.99474 -5.54308e-10 0)
(1.99474 -7.3249e-10 0)
(1.99474 -9.5433e-10 0)
(1.99474 -1.31296e-09 0)
(1.99474 -2.0074e-09 0)
(1.99474 -3.02103e-09 0)
(1.99474 -1.12137e-09 0)
(2.00511 2.05763e-09 0)
(2.00511 1.81282e-09 0)
(2.00511 1.4845e-09 0)
(2.00511 1.28407e-09 0)
(2.00511 1.10403e-09 0)
(2.00511 8.997e-10 0)
(2.00511 6.98323e-10 0)
(2.00511 5.03123e-10 0)
(2.00511 3.14993e-10 0)
(2.00511 1.33501e-10 0)
(2.00511 -4.18571e-11 0)
(2.00511 -2.11719e-10 0)
(2.00511 -3.77277e-10 0)
(2.00511 -5.43057e-10 0)
(2.00511 -7.19299e-10 0)
(2.00511 -9.39316e-10 0)
(2.00511 -1.29735e-09 0)
(2.00511 -1.99556e-09 0)
(2.00511 -3.0232e-09 0)
(2.00511 -1.14505e-09 0)
(2.01483 1.97379e-09 0)
(2.01483 1.74418e-09 0)
(2.01483 1.43142e-09 0)
(2.01483 1.23912e-09 0)
(2.01483 1.06703e-09 0)
(2.01483 8.71255e-10 0)
(2.01483 6.77883e-10 0)
(2.01483 4.90667e-10 0)
(2.01483 3.10325e-10 0)
(2.01483 1.36383e-10 0)
(2.01483 -3.16451e-11 0)
(2.01483 -1.9437e-10 0)
(2.01483 -3.52961e-10 0)
(2.01483 -5.11814e-10 0)
(2.01483 -6.81039e-10 0)
(2.01483 -8.93584e-10 0)
(2.01483 -1.24287e-09 0)
(2.01483 -1.93157e-09 0)
(2.01483 -2.96939e-09 0)
(2.01483 -1.13233e-09 0)
(2.02382 1.83415e-09 0)
(2.02382 1.62625e-09 0)
(2.02382 1.33846e-09 0)
(2.02382 1.16016e-09 0)
(2.02382 1.00108e-09 0)
(2.02382 8.19526e-10 0)
(2.02382 6.39391e-10 0)
(2.02382 4.65012e-10 0)
(2.02382 2.97032e-10 0)
(2.02382 1.35012e-10 0)
(2.02382 -2.14316e-11 0)
(2.02382 -1.72812e-10 0)
(2.02382 -3.20184e-10 0)
(2.02382 -4.6771e-10 0)
(2.02382 -6.25057e-10 0)
(2.02382 -8.2387e-10 0)
(2.02382 -1.15411e-09 0)
(2.02382 -1.81353e-09 0)
(2.02382 -2.83715e-09 0)
(2.02382 -1.08071e-09 0)
(2.03201 1.63314e-09 0)
(2.03201 1.45323e-09 0)
(2.03201 1.19969e-09 0)
(2.03201 1.04139e-09 0)
(2.03201 9.00433e-10 0)
(2.03201 7.39161e-10 0)
(2.03201 5.78155e-10 0)
(2.03201 4.22139e-10 0)
(2.03201 2.71812e-10 0)
(2.03201 1.26793e-10 0)
(2.03201 -1.31666e-11 0)
(2.03201 -1.48447e-10 0)
(2.03201 -2.79941e-10 0)
(2.03201 -4.11436e-10 0)
(2.03201 -5.51811e-10 0)
(2.03201 -7.30222e-10 0)
(2.03201 -1.02942e-09 0)
(2.03201 -1.63201e-09 0)
(2.03201 -2.58148e-09 0)
(2.03201 -9.87507e-10 0)
(2.03933 1.3796e-09 0)
(2.03933 1.2326e-09 0)
(2.03933 1.02114e-09 0)
(2.03933 8.88093e-10 0)
(2.03933 7.69338e-10 0)
(2.03933 6.33651e-10 0)
(2.03933 4.9688e-10 0)
(2.03933 3.63894e-10 0)
(2.03933 2.35622e-10 0)
(2.03933 1.11784e-10 0)
(2.03933 -7.6936e-12 0)
(2.03933 -1.23018e-10 0)
(2.03933 -2.34857e-10 0)
(2.03933 -3.46493e-10 0)
(2.03933 -4.65686e-10 0)
(2.03933 -6.17983e-10 0)
(2.03933 -8.75352e-10 0)
(2.03933 -1.39512e-09 0)
(2.03933 -2.21074e-09 0)
(2.03933 -8.55956e-10 0)
(2.04573 1.09579e-09 0)
(2.04573 9.83867e-10 0)
(2.04573 8.18666e-10 0)
(2.04573 7.14028e-10 0)
(2.04573 6.19598e-10 0)
(2.04573 5.12921e-10 0)
(2.04573 4.03473e-10 0)
(2.04573 2.9646e-10 0)
(2.04573 1.93046e-10 0)
(2.04573 9.3064e-11 0)
(2.04573 -3.37607e-12 0)
(2.04573 -9.6297e-11 0)
(2.04573 -1.86127e-10 0)
(2.04573 -2.75552e-10 0)
(2.04573 -3.71008e-10 0)
(2.04573 -4.93711e-10 0)
(2.04573 -7.02682e-10 0)
(2.04573 -1.12489e-09 0)
(2.04573 -1.78091e-09 0)
(2.04573 -6.9643e-10 0)
(2.05115 8.07713e-10 0)
(2.05115 7.29587e-10 0)
(2.05115 6.09998e-10 0)
(2.05115 5.33998e-10 0)
(2.05115 4.63739e-10 0)
(2.05115 3.86672e-10 0)
(2.05115 3.05164e-10 0)
(2.05115 2.2482e-10 0)
(2.05115 1.47005e-10 0)
(2.05115 7.16419e-11 0)
(2.05115 -1.00152e-12 0)
(2.05115 -7.07845e-11 0)
(2.05115 -1.37909e-10 0)
(2.05115 -2.0442e-10 0)
(2.05115 -2.75342e-10 0)
(2.05115 -3.67179e-10 0)
(2.05115 -5.2502e-10 0)
(2.05115 -8.43652e-10 0)
(2.05115 -1.33094e-09 0)
(2.05115 -5.24393e-10 0)
(2.0556 5.4538e-10 0)
(2.0556 4.95903e-10 0)
(2.0556 4.15647e-10 0)
(2.0556 3.65081e-10 0)
(2.0556 3.16467e-10 0)
(2.0556 2.65678e-10 0)
(2.0556 2.09999e-10 0)
(2.0556 1.54381e-10 0)
(2.0556 1.00467e-10 0)
(2.0556 4.82557e-11 0)
(2.0556 -1.89122e-12 0)
(2.0556 -4.97206e-11 0)
(2.0556 -9.5262e-11 0)
(2.0556 -1.39899e-10 0)
(2.0556 -1.87317e-10 0)
(2.0556 -2.49316e-10 0)
(2.0556 -3.57438e-10 0)
(2.0556 -5.76123e-10 0)
(2.0556 -9.03765e-10 0)
(2.0556 -3.56271e-10 0)
(2.05907 3.31148e-10 0)
(2.05907 3.03057e-10 0)
(2.05907 2.52941e-10 0)
(2.05907 2.22454e-10 0)
(2.05907 1.91528e-10 0)
(2.05907 1.60412e-10 0)
(2.05907 1.26711e-10 0)
(2.05907 9.17552e-11 0)
(2.05907 5.79773e-11 0)
(2.05907 2.54403e-11 0)
(2.05907 -5.47287e-12 0)
(2.05907 -3.4461e-11 0)
(2.05907 -6.14365e-11 0)
(2.05907 -8.72057e-11 0)
(2.05907 -1.14245e-10 0)
(2.05907 -1.50099e-10 0)
(2.05907 -2.14467e-10 0)
(2.05907 -3.46492e-10 0)
(2.05907 -5.40055e-10 0)
(2.05907 -2.10047e-10 0)
(2.06163 1.77805e-10 0)
(2.06163 1.63355e-10 0)
(2.06163 1.33068e-10 0)
(2.06163 1.16113e-10 0)
(2.06163 9.77857e-11 0)
(2.06163 7.91723e-11 0)
(2.06163 6.17499e-11 0)
(2.06163 4.19545e-11 0)
(2.06163 2.31435e-11 0)
(2.06163 5.41909e-12 0)
(2.06163 -1.08692e-11 0)
(2.06163 -2.54293e-11 0)
(2.06163 -3.81133e-11 0)
(2.06163 -4.92952e-11 0)
(2.06163 -6.04593e-11 0)
(2.06163 -7.57121e-11 0)
(2.06163 -1.0559e-10 0)
(2.06163 -1.70864e-10 0)
(2.06163 -2.65464e-10 0)
(2.06163 -9.71583e-11 0)
(2.06331 8.48446e-11 0)
(2.06331 7.82737e-11 0)
(2.06331 6.0658e-11 0)
(2.06331 4.7592e-11 0)
(2.06331 3.6427e-11 0)
(2.06331 2.57862e-11 0)
(2.06331 1.78437e-11 0)
(2.06331 7.9879e-12 0)
(2.06331 -1.00003e-12 0)
(2.06331 -9.02461e-12 0)
(2.06331 -1.57747e-11 0)
(2.06331 -2.09739e-11 0)
(2.06331 -2.44035e-11 0)
(2.06331 -2.62775e-11 0)
(2.06331 -2.72602e-11 0)
(2.06331 -2.91129e-11 0)
(2.06331 -3.63744e-11 0)
(2.06331 -5.74591e-11 0)
(2.06331 -9.01757e-11 0)
(2.06331 -2.19341e-11 0)
(2.06421 4.49645e-11 0)
(2.06421 3.87961e-11 0)
(2.06421 2.45386e-11 0)
(2.06421 7.70504e-12 0)
(2.06421 -1.10344e-12 0)
(2.06421 -8.82579e-12 0)
(2.06421 -1.3851e-11 0)
(2.06421 -1.86339e-11 0)
(2.06421 -2.23537e-11 0)
(2.06421 -2.43246e-11 0)
(2.06421 -2.43141e-11 0)
(2.06421 -2.28357e-11 0)
(2.06421 -1.99876e-11 0)
(2.06421 -1.57271e-11 0)
(2.06421 -9.29171e-12 0)
(2.06421 -1.53814e-12 0)
(2.06421 7.00107e-12 0)
(2.06421 1.31447e-11 0)
(2.06421 1.45397e-11 0)
(2.06421 3.15675e-11 0)
(2.06439 -4.90699e-11 0)
(2.06439 -3.993e-11 0)
(2.06439 -1.19223e-11 0)
(2.06439 -6.13516e-12 0)
(2.06439 3.44576e-11 0)
(2.06439 3.34512e-11 0)
(2.06439 2.70404e-11 0)
(2.06439 2.05241e-11 0)
(2.06439 1.4879e-11 0)
(2.06439 1.10813e-11 0)
(2.06439 9.54309e-12 0)
(2.06439 1.02259e-11 0)
(2.06439 1.27293e-11 0)
(2.06439 1.66621e-11 0)
(2.06439 2.03012e-11 0)
(2.06439 1.90919e-11 0)
(2.06439 3.20609e-12 0)
(2.06439 -8.93897e-12 0)
(2.06439 -6.08318e-11 0)
(2.06439 -5.58793e-11 0)
(2.06392 5.91125e-11 0)
(2.06392 4.43529e-11 0)
(2.06392 1.68171e-11 0)
(2.06392 1.3484e-11 0)
(2.06392 3.49828e-12 0)
(2.06392 -7.01769e-12 0)
(2.06392 -1.47422e-11 0)
(2.06392 -2.23053e-11 0)
(2.06392 -2.75377e-11 0)
(2.06392 -3.02241e-11 0)
(2.06392 -3.07197e-11 0)
(2.06392 -2.94598e-11 0)
(2.06392 -2.63995e-11 0)
(2.06392 -2.14406e-11 0)
(2.06392 -1.43165e-11 0)
(2.06392 -5.27684e-12 0)
(2.06392 5.38552e-12 0)
(2.06392 1.38033e-11 0)
(2.06392 2.76106e-11 0)
(2.06392 4.51482e-11 0)
(2.06287 9.35179e-11 0)
(2.06287 7.77572e-11 0)
(2.06287 5.03284e-11 0)
(2.06287 3.44469e-11 0)
(2.06287 2.00794e-11 0)
(2.06287 6.10243e-12 0)
(2.06287 -4.59693e-12 0)
(2.06287 -1.47445e-11 0)
(2.06287 -2.30875e-11 0)
(2.06287 -2.93673e-11 0)
(2.06287 -3.35243e-11 0)
(2.06287 -3.54887e-11 0)
(2.06287 -3.53462e-11 0)
(2.06287 -3.35066e-11 0)
(2.06287 -3.01039e-11 0)
(2.06287 -2.58455e-11 0)
(2.06287 -2.19304e-11 0)
(2.06287 -2.06001e-11 0)
(2.06287 -1.41606e-11 0)
(2.06287 4.00282e-11 0)
(2.0613 1.27419e-10 0)
(2.0613 1.08029e-10 0)
(2.0613 7.62677e-11 0)
(2.0613 5.62636e-11 0)
(2.0613 3.8141e-11 0)
(2.0613 2.02963e-11 0)
(2.0613 5.95137e-12 0)
(2.0613 -7.7574e-12 0)
(2.0613 -1.93548e-11 0)
(2.0613 -2.86752e-11 0)
(2.0613 -3.57334e-11 0)
(2.0613 -4.05558e-11 0)
(2.0613 -4.32396e-11 0)
(2.0613 -4.41167e-11 0)
(2.0613 -4.40217e-11 0)
(2.0613 -4.41666e-11 0)
(2.0613 -4.69345e-11 0)
(2.0613 -5.52246e-11 0)
(2.0613 -5.58752e-11 0)
(2.0613 3.30218e-11 0)
(2.05925 1.63612e-10 0)
(2.05925 1.42186e-10 0)
(2.05925 1.06129e-10 0)
(2.05925 8.02263e-11 0)
(2.05925 5.74896e-11 0)
(2.05925 3.49945e-11 0)
(2.05925 1.61046e-11 0)
(2.05925 -1.86729e-12 0)
(2.05925 -1.73237e-11 0)
(2.05925 -3.01635e-11 0)
(2.05925 -4.04428e-11 0)
(2.05925 -4.82518e-11 0)
(2.05925 -5.37742e-11 0)
(2.05925 -5.74726e-11 0)
(2.05925 -6.04869e-11 0)
(2.05925 -6.47042e-11 0)
(2.05925 -7.33105e-11 0)
(2.05925 -8.91101e-11 0)
(2.05925 -9.36615e-11 0)
(2.05925 2.96807e-11 0)
(2.05678 1.71402e-10 0)
(2.05678 1.49705e-10 0)
(2.05678 1.14505e-10 0)
(2.05678 8.9413e-11 0)
(2.05678 6.77482e-11 0)
(2.05678 4.60311e-11 0)
(2.05678 2.7298e-11 0)
(2.05678 9.09546e-12 0)
(2.05678 -7.08416e-12 0)
(2.05678 -2.11462e-11 0)
(2.05678 -3.31438e-11 0)
(2.05678 -4.31824e-11 0)
(2.05678 -5.14949e-11 0)
(2.05678 -5.86805e-11 0)
(2.05678 -6.61126e-11 0)
(2.05678 -7.60148e-11 0)
(2.05678 -9.19621e-11 0)
(2.05678 -1.16042e-10 0)
(2.05678 -1.23657e-10 0)
(2.05678 1.35123e-11 0)
(2.05393 1.63499e-10 0)
(2.05393 1.41096e-10 0)
(2.05393 1.09326e-10 0)
(2.05393 8.97931e-11 0)
(2.05393 7.15651e-11 0)
(2.05393 5.28359e-11 0)
(2.05393 3.63477e-11 0)
(2.05393 1.97484e-11 0)
(2.05393 4.47069e-12 0)
(2.05393 -9.37875e-12 0)
(2.05393 -2.1834e-11 0)
(2.05393 -3.30019e-11 0)
(2.05393 -4.317e-11 0)
(2.05393 -5.31061e-11 0)
(2.05393 -6.41589e-11 0)
(2.05393 -7.89703e-11 0)
(2.05393 -1.01475e-10 0)
(2.05393 -1.33542e-10 0)
(2.05393 -1.45268e-10 0)
(2.05393 -4.90581e-12 0)
(2.05074 1.74325e-10 0)
(2.05074 1.52981e-10 0)
(2.05074 1.21436e-10 0)
(2.05074 1.00872e-10 0)
(2.05074 8.10761e-11 0)
(2.05074 6.0643e-11 0)
(2.05074 4.2386e-11 0)
(2.05074 2.40043e-11 0)
(2.05074 6.98866e-12 0)
(2.05074 -8.55758e-12 0)
(2.05074 -2.26851e-11 0)
(2.05074 -3.55307e-11 0)
(2.05074 -4.74373e-11 0)
(2.05074 -5.92736e-11 0)
(2.05074 -7.2467e-11 0)
(2.05074 -8.98352e-11 0)
(2.05074 -1.15372e-10 0)
(2.05074 -1.50196e-10 0)
(2.05074 -1.55763e-10 0)
(2.05074 -7.77299e-12 0)
(2.04724 1.66745e-10 0)
(2.04724 1.4775e-10 0)
(2.04724 1.20206e-10 0)
(2.04724 1.00214e-10 0)
(2.04724 8.16745e-11 0)
(2.04724 6.25201e-11 0)
(2.04724 4.53143e-11 0)
(2.04724 2.77424e-11 0)
(2.04724 1.12353e-11 0)
(2.04724 -4.12228e-12 0)
(2.04724 -1.83908e-11 0)
(2.04724 -3.17217e-11 0)
(2.04724 -4.44854e-11 0)
(2.04724 -5.749e-11 0)
(2.04724 -7.21644e-11 0)
(2.04724 -9.12367e-11 0)
(2.04724 -1.18408e-10 0)
(2.04724 -1.53754e-10 0)
(2.04724 -1.58623e-10 0)
(2.04724 -1.29713e-11 0)
(2.04348 1.50089e-10 0)
(2.04348 1.33952e-10 0)
(2.04348 1.11366e-10 0)
(2.04348 9.4177e-11 0)
(2.04348 7.80357e-11 0)
(2.04348 6.11831e-11 0)
(2.04348 4.59919e-11 0)
(2.04348 3.01223e-11 0)
(2.04348 1.49557e-11 0)
(2.04348 5.8905e-13 0)
(2.04348 -1.30293e-11 0)
(2.04348 -2.6045e-11 0)
(2.04348 -3.8826e-11 0)
(2.04348 -5.20717e-11 0)
(2.04348 -6.71577e-11 0)
(2.04348 -8.66213e-11 0)
(2.04348 -1.13818e-10 0)
(2.04348 -1.48358e-10 0)
(2.04348 -1.56088e-10 0)
(2.04348 -1.83872e-11 0)
(2.03951 1.27725e-10 0)
(2.03951 1.14998e-10 0)
(2.03951 9.77591e-11 0)
(2.03951 8.39337e-11 0)
(2.03951 7.0748e-11 0)
(2.03951 5.68097e-11 0)
(2.03951 4.42803e-11 0)
(2.03951 3.08022e-11 0)
(2.03951 1.76586e-11 0)
(2.03951 4.96033e-12 0)
(2.03951 -7.33769e-12 0)
(2.03951 -1.93735e-11 0)
(2.03951 -3.14706e-11 0)
(2.03951 -4.42215e-11 0)
(2.03951 -5.88795e-11 0)
(2.03951 -7.7702e-11 0)
(2.03951 -1.03642e-10 0)
(2.03951 -1.3613e-10 0)
(2.03951 -1.48074e-10 0)
(2.03951 -2.30397e-11 0)
(2.03535 1.019e-10 0)
(2.03535 9.28604e-11 0)
(2.03535 8.11467e-11 0)
(2.03535 7.09189e-11 0)
(2.03535 6.09504e-11 0)
(2.03535 5.02253e-11 0)
(2.03535 4.06363e-11 0)
(2.03535 2.99393e-11 0)
(2.03535 1.92261e-11 0)
(2.03535 8.63231e-12 0)
(2.03535 -1.88294e-12 0)
(2.03535 -1.24344e-11 0)
(2.03535 -2.32593e-11 0)
(2.03535 -3.48882e-11 0)
(2.03535 -4.84071e-11 0)
(2.03535 -6.57812e-11 0)
(2.03535 -8.96496e-11 0)
(2.03535 -1.19737e-10 0)
(2.03535 -1.34236e-10 0)
(2.03535 -2.62887e-11 0)
(2.03107 7.44909e-11 0)
(2.03107 6.90602e-11 0)
(2.03107 6.27693e-11 0)
(2.03107 5.60611e-11 0)
(2.03107 4.9307e-11 0)
(2.03107 4.18235e-11 0)
(2.03107 3.51291e-11 0)
(2.03107 2.73316e-11 0)
(2.03107 1.92539e-11 0)
(2.03107 1.10326e-11 0)
(2.03107 2.64119e-12 0)
(2.03107 -5.99855e-12 0)
(2.03107 -1.50774e-11 0)
(2.03107 -2.50204e-11 0)
(2.03107 -3.6709e-11 0)
(2.03107 -5.17651e-11 0)
(2.03107 -7.24634e-11 0)
(2.03107 -9.88982e-11 0)
(2.03107 -1.15054e-10 0)
(2.03107 -2.7757e-11 0)
(2.0267 4.7396e-11 0)
(2.0267 4.52463e-11 0)
(2.0267 4.37108e-11 0)
(2.0267 4.01067e-11 0)
(2.0267 3.62794e-11 0)
(2.0267 3.17992e-11 0)
(2.0267 2.76871e-11 0)
(2.0267 2.27072e-11 0)
(2.0267 1.7247e-11 0)
(2.0267 1.14803e-11 0)
(2.0267 5.39351e-12 0)
(2.0267 -1.06408e-12 0)
(2.0267 -8.02529e-12 0)
(2.0267 -1.57943e-11 0)
(2.0267 -2.50151e-11 0)
(2.0267 -3.68915e-11 0)
(2.0267 -5.31734e-11 0)
(2.0267 -7.40184e-11 0)
(2.0267 -8.83614e-11 0)
(2.0267 -2.69725e-11 0)
(2.02231 2.35376e-11 0)
(2.02231 2.40888e-11 0)
(2.02231 2.61181e-11 0)
(2.02231 2.485e-11 0)
(2.02231 2.33438e-11 0)
(2.02231 2.13258e-11 0)
(2.02231 1.92696e-11 0)
(2.02231 1.67417e-11 0)
(2.02231 1.36478e-11 0)
(2.02231 1.02041e-11 0)
(2.02231 6.40815e-12 0)
(2.02231 2.23457e-12 0)
(2.02231 -2.3955e-12 0)
(2.02231 -7.67295e-12 0)
(2.02231 -1.4016e-11 0)
(2.02231 -2.22286e-11 0)
(2.02231 -3.35581e-11 0)
(2.02231 -4.82719e-11 0)
(2.02231 -6.01224e-11 0)
(2.02231 -2.35721e-11 0)
(2.01794 5.08573e-12 0)
(2.01794 7.3852e-12 0)
(2.01794 1.1548e-11 0)
(2.01794 1.15149e-11 0)
(2.01794 1.1402e-11 0)
(2.01794 1.1e-11 0)
(2.01794 1.03625e-11 0)
(2.01794 9.56176e-12 0)
(2.01794 8.35335e-12 0)
(2.01794 6.90165e-12 0)
(2.01794 5.2082e-12 0)
(2.01794 3.27031e-12 0)
(2.01794 1.05243e-12 0)
(2.01794 -1.54193e-12 0)
(2.01794 -4.7361e-12 0)
(2.01794 -8.98122e-12 0)
(2.01794 -1.50654e-11 0)
(2.01794 -2.33575e-11 0)
(2.01794 -3.18835e-11 0)
(2.01794 -1.70815e-11 0)
(2.01367 -5.87092e-12 0)
(2.01367 -2.94159e-12 0)
(2.01367 1.44973e-12 0)
(2.01367 1.25636e-12 0)
(2.01367 1.34044e-12 0)
(2.01367 1.41059e-12 0)
(2.01367 1.40439e-12 0)
(2.01367 1.42259e-12 0)
(2.01367 1.41256e-12 0)
(2.01367 1.42021e-12 0)
(2.01367 1.45815e-12 0)
(2.01367 1.54213e-12 0)
(2.01367 1.64825e-12 0)
(2.01367 1.79262e-12 0)
(2.01367 1.91158e-12 0)
(2.01367 1.7483e-12 0)
(2.01367 9.45536e-13 0)
(2.01367 -9.31956e-13 0)
(2.01367 -5.30307e-12 0)
(2.01367 -7.33327e-12 0)
(2.00956 -7.99852e-12 0)
(2.00956 -5.67566e-12 0)
(2.00956 -3.01871e-12 0)
(2.00956 -4.89453e-12 0)
(2.00956 -5.97245e-12 0)
(2.00956 -6.80594e-12 0)
(2.00956 -7.19733e-12 0)
(2.00956 -7.19403e-12 0)
(2.00956 -6.81782e-12 0)
(2.00956 -6.021e-12 0)
(2.00956 -4.75279e-12 0)
(2.00956 -2.99917e-12 0)
(2.00956 -7.5243e-13 0)
(2.00956 1.99565e-12 0)
(2.00956 5.25182e-12 0)
(2.00956 9.02462e-12 0)
(2.00956 1.32125e-11 0)
(2.00956 1.73668e-11 0)
(2.00956 1.78757e-11 0)
(2.00956 5.39897e-12 0)
(2.0057 -1.23138e-12 0)
(2.0057 -4.72242e-13 0)
(2.0057 -1.4756e-12 0)
(2.0057 -6.41029e-12 0)
(2.0057 -9.88877e-12 0)
(2.0057 -1.28884e-11 0)
(2.0057 -1.45558e-11 0)
(2.0057 -1.56183e-11 0)
(2.0057 -1.57182e-11 0)
(2.0057 -1.48135e-11 0)
(2.0057 -1.29708e-11 0)
(2.0057 -1.00945e-11 0)
(2.0057 -6.17247e-12 0)
(2.0057 -1.18739e-12 0)
(2.0057 4.89853e-12 0)
(2.0057 1.21697e-11 0)
(2.0057 2.06757e-11 0)
(2.0057 2.99053e-11 0)
(2.0057 3.54876e-11 0)
(2.0057 1.97201e-11 0)
(2.00216 1.48386e-11 0)
(2.00216 1.10685e-11 0)
(2.00216 5.21792e-12 0)
(2.00216 -3.51949e-12 0)
(2.00216 -1.01692e-11 0)
(2.00216 -1.61254e-11 0)
(2.00216 -1.96958e-11 0)
(2.00216 -2.26601e-11 0)
(2.00216 -2.40908e-11 0)
(2.00216 -2.3703e-11 0)
(2.00216 -2.1952e-11 0)
(2.00216 -1.86237e-11 0)
(2.00216 -1.36846e-11 0)
(2.00216 -7.1219e-12 0)
(2.00216 1.09238e-12 0)
(2.00216 1.10326e-11 0)
(2.00216 2.27659e-11 0)
(2.00216 3.56479e-11 0)
(2.00216 4.58949e-11 0)
(2.00216 3.41323e-11 0)
(1.99907 3.06332e-11 0)
(1.99907 2.56647e-11 0)
(1.99907 1.50241e-11 0)
(1.99907 2.61442e-12 0)
(1.99907 -7.05815e-12 0)
(1.99907 -1.58447e-11 0)
(1.99907 -2.16879e-11 0)
(1.99907 -2.68091e-11 0)
(1.99907 -2.99564e-11 0)
(1.99907 -3.08577e-11 0)
(1.99907 -2.95976e-11 0)