/*--------------------------------*- C++ -*----------------------------------*\
  =========                 |
  \\      /  F ield         | OpenFOAM: The Open Source CFD Toolbox
   \\    /   O peration     | Website:  https://openfoam.org
    \\  /    A nd           | Version:  6
     \\/     M anipulation  |
\*---------------------------------------------------------------------------*/
FoamFile
{
    version     2.0;
    format      ascii;
    class       volVectorField;
    location    "19.44";
    object      U_0;
}
// * * * * * * * * * * * * * * * * * * * * * * * * * * * * * * * * * * * * * //

dimensions      [0 1 -1 0 0 0 0];

internalField   nonuniform List<vector> 
1380
(
(1.01497 5.78037e-10 0)
(1.01497 5.99238e-10 0)
(1.01497 5.72851e-10 0)
(1.01497 5.13315e-10 0)
(1.01497 4.21075e-10 0)
(1.01497 3.24871e-10 0)
(1.01497 2.27066e-10 0)
(1.01497 1.26564e-10 0)
(1.01497 2.55257e-11 0)
(1.01497 -7.22572e-11 0)
(1.01497 -1.63492e-10 0)
(1.01497 -2.48042e-10 0)
(1.01497 -3.21637e-10 0)
(1.01497 -3.84296e-10 0)
(1.01497 -4.39747e-10 0)
(1.01497 -4.60706e-10 0)
(1.01497 -4.53479e-10 0)
(1.01497 -4.2732e-10 0)
(1.01497 -3.52815e-10 0)
(1.01497 -6.59408e-11 0)
(1.25201 -1.20463e-09 0)
(1.25201 -8.9903e-10 0)
(1.25201 -4.75879e-10 0)
(1.25201 -3.51669e-10 0)
(1.25201 -2.31279e-10 0)
(1.25201 -1.30939e-10 0)
(1.25201 -5.94742e-11 0)
(1.25201 -1.36878e-11 0)
(1.25201 1.45257e-11 0)
(1.25201 3.03154e-11 0)
(1.25201 4.01346e-11 0)
(1.25201 4.79576e-11 0)
(1.25201 6.10769e-11 0)
(1.25201 8.52465e-11 0)
(1.25201 1.27123e-10 0)
(1.25201 1.90411e-10 0)
(1.25201 2.94608e-10 0)
(1.25201 4.23991e-10 0)
(1.25201 1.34945e-09 0)
(1.25201 7.00014e-10 0)
(1.36523 -1.02725e-09 0)
(1.36523 -8.11209e-10 0)
(1.36523 -4.76518e-10 0)
(1.36523 -3.34918e-10 0)
(1.36523 -2.49748e-10 0)
(1.36523 -1.50887e-10 0)
(1.36523 -8.07682e-11 0)
(1.36523 -3.11516e-11 0)
(1.36523 6.43171e-13 0)
(1.36523 2.03609e-11 0)
(1.36523 3.53223e-11 0)
(1.36523 4.76343e-11 0)
(1.36523 6.07331e-11 0)
(1.36523 7.94435e-11 0)
(1.36523 1.07034e-10 0)
(1.36523 1.51978e-10 0)
(1.36523 2.24647e-10 0)
(1.36523 4.2144e-10 0)
(1.36523 1.29625e-09 0)
(1.36523 7.19202e-10 0)
(1.44548 -1.09407e-09 0)
(1.44548 -9.48766e-10 0)
(1.44548 -6.64516e-10 0)
(1.44548 -5.10657e-10 0)
(1.44548 -4.03017e-10 0)
(1.44548 -2.74475e-10 0)
(1.44548 -1.6236e-10 0)
(1.44548 -6.7645e-11 0)
(1.44548 1.01747e-11 0)
(1.44548 7.26895e-11 0)
(1.44548 1.23577e-10 0)
(1.44548 1.64634e-10 0)
(1.44548 2.02626e-10 0)
(1.44548 2.33953e-10 0)
(1.44548 2.60012e-10 0)
(1.44548 2.85723e-10 0)
(1.44548 3.21863e-10 0)
(1.44548 4.92439e-10 0)
(1.44548 1.27873e-09 0)
(1.44548 6.7787e-10 0)
(1.50777 -9.98984e-10 0)
(1.50777 -9.18154e-10 0)
(1.50777 -6.51373e-10 0)
(1.50777 -4.88519e-10 0)
(1.50777 -3.69804e-10 0)
(1.50777 -2.33388e-10 0)
(1.50777 -1.13324e-10 0)
(1.50777 -1.22646e-11 0)
(1.50777 6.91887e-11 0)
(1.50777 1.3239e-10 0)
(1.50777 1.7939e-10 0)
(1.50777 2.12082e-10 0)
(1.50777 2.32338e-10 0)
(1.50777 2.40269e-10 0)
(1.50777 2.36023e-10 0)
(1.50777 2.25429e-10 0)
(1.50777 2.21243e-10 0)
(1.50777 3.7308e-10 0)
(1.50777 1.10891e-09 0)
(1.50777 5.5576e-10 0)
(1.55875 -9.04079e-10 0)
(1.55875 -8.49343e-10 0)
(1.55875 -6.09478e-10 0)
(1.55875 -4.49658e-10 0)
(1.55875 -3.30631e-10 0)
(1.55875 -1.93682e-10 0)
(1.55875 -7.27559e-11 0)
(1.55875 2.91429e-11 0)
(1.55875 1.10623e-10 0)
(1.55875 1.72143e-10 0)
(1.55875 2.14696e-10 0)
(1.55875 2.39713e-10 0)
(1.55875 2.42613e-10 0)
(1.55875 2.30847e-10 0)
(1.55875 2.04883e-10 0)
(1.55875 1.64323e-10 0)
(1.55875 1.30279e-10 0)
(1.55875 2.65303e-10 0)
(1.55875 9.4698e-10 0)
(1.55875 4.57699e-10 0)
(1.60196 -8.05258e-10 0)
(1.60196 -7.62247e-10 0)
(1.60196 -5.38222e-10 0)
(1.60196 -3.80102e-10 0)
(1.60196 -2.61395e-10 0)
(1.60196 -1.25919e-10 0)
(1.60196 -8.9501e-12 0)
(1.60196 8.75336e-11 0)
(1.60196 1.61779e-10 0)
(1.60196 2.13807e-10 0)
(1.60196 2.44669e-10 0)
(1.60196 2.49302e-10 0)
(1.60196 2.35646e-10 0)
(1.60196 2.03288e-10 0)
(1.60196 1.49953e-10 0)
(1.60196 8.02682e-11 0)
(1.60196 1.93292e-11 0)
(1.60196 1.29947e-10 0)
(1.60196 7.58711e-10 0)
(1.60196 3.47912e-10 0)
(1.63947 -6.84004e-10 0)
(1.63947 -6.55662e-10 0)
(1.63947 -4.50615e-10 0)
(1.63947 -2.98435e-10 0)
(1.63947 -1.84131e-10 0)
(1.63947 -5.62297e-11 0)
(1.63947 5.18006e-11 0)
(1.63947 1.3856e-10 0)
(1.63947 2.02031e-10 0)
(1.63947 2.42463e-10 0)
(1.63947 2.56624e-10 0)
(1.63947 2.45538e-10 0)
(1.63947 2.16843e-10 0)
(1.63947 1.63948e-10 0)
(1.63947 8.84011e-11 0)
(1.63947 -4.6293e-12 0)
(1.63947 -8.63815e-11 0)
(1.63947 -6.24062e-12 0)
(1.63947 5.70028e-10 0)
(1.63947 2.49931e-10 0)
(1.67263 -5.52404e-10 0)
(1.67263 -5.38127e-10 0)
(1.67263 -3.53553e-10 0)
(1.67263 -2.10063e-10 0)
(1.67263 -1.02167e-10 0)
(1.67263 1.48173e-11 0)
(1.67263 1.11351e-10 0)
(1.67263 1.86159e-10 0)
(1.67263 2.37168e-10 0)
(1.67263 2.63835e-10 0)
(1.67263 2.5908e-10 0)
(1.67263 2.37916e-10 0)
(1.67263 1.91635e-10 0)
(1.67263 1.20728e-10 0)
(1.67263 2.61346e-11 0)
(1.67263 -8.69636e-11 0)
(1.67263 -1.93992e-10 0)
(1.67263 -1.38787e-10 0)
(1.67263 3.7703e-10 0)
(1.67263 1.50082e-10 0)
(1.70235 -4.03218e-10 0)
(1.70235 -4.06525e-10 0)
(1.70235 -2.46512e-10 0)
(1.70235 -1.15517e-10 0)
(1.70235 -1.72757e-11 0)
(1.70235 8.55682e-11 0)
(1.70235 1.67852e-10 0)
(1.70235 2.28612e-10 0)
(1.70235 2.65752e-10 0)
(1.70235 2.74185e-10 0)
(1.70235 2.59106e-10 0)
(1.70235 2.23137e-10 0)
(1.70235 1.61766e-10 0)
(1.70235 7.56718e-11 0)
(1.70235 -3.43037e-11 0)
(1.70235 -1.63496e-10 0)
(1.70235 -2.941e-10 0)
(1.70235 -2.69093e-10 0)
(1.70235 1.51249e-10 0)
(1.70235 5.72174e-11 0)
(1.72925 -2.83385e-10 0)
(1.72925 -2.72952e-10 0)
(1.72925 -1.36889e-10 0)
(1.72925 -2.12034e-11 0)
(1.72925 6.53437e-11 0)
(1.72925 1.5231e-10 0)
(1.72925 2.18839e-10 0)
(1.72925 2.6465e-10 0)
(1.72925 2.86268e-10 0)
(1.72925 2.78749e-10 0)
(1.72925 2.52847e-10 0)
(1.72925 2.02637e-10 0)
(1.72925 1.27924e-10 0)
(1.72925 2.88166e-11 0)
(1.72925 -9.38624e-11 0)
(1.72925 -2.3612e-10 0)
(1.72925 -3.85581e-10 0)
(1.72925 -3.86752e-10 0)
(1.72925 -5.53071e-11 0)
(1.72925 -6.65824e-12 0)
(1.75382 -1.56784e-10 0)
(1.75382 -1.34283e-10 0)
(1.75382 -2.4051e-11 0)
(1.75382 7.40892e-11 0)
(1.75382 1.4703e-10 0)
(1.75382 2.16711e-10 0)
(1.75382 2.66183e-10 0)
(1.75382 2.9576e-10 0)
(1.75382 2.98772e-10 0)
(1.75382 2.81519e-10 0)
(1.75382 2.42036e-10 0)
(1.75382 1.7897e-10 0)
(1.75382 9.22962e-11 0)
(1.75382 -1.80091e-11 0)
(1.75382 -1.51107e-10 0)
(1.75382 -3.03057e-10 0)
(1.75382 -4.61256e-10 0)
(1.75382 -4.99059e-10 0)
(1.75382 -2.57153e-10 0)
(1.75382 -8.83397e-11 0)
(1.7764 -2.52982e-11 0)
(1.7764 6.85275e-12 0)
(1.7764 8.92151e-11 0)
(1.7764 1.68025e-10 0)
(1.7764 2.25774e-10 0)
(1.7764 2.77422e-10 0)
(1.7764 3.09115e-10 0)
(1.7764 3.20568e-10 0)
(1.7764 3.10184e-10 0)
(1.7764 2.79643e-10 0)
(1.7764 2.27311e-10 0)
(1.7764 1.52709e-10 0)
(1.7764 5.56026e-11 0)
(1.7764 -6.39923e-11 0)
(1.7764 -2.05337e-10 0)
(1.7764 -3.64913e-10 0)
(1.7764 -5.30878e-10 0)
(1.7764 -6.08486e-10 0)
(1.7764 -4.57749e-10 0)
(1.7764 -1.65855e-10 0)
(1.79727 1.09935e-10 0)
(1.79727 1.51026e-10 0)
(1.79727 2.0347e-10 0)
(1.79727 2.61323e-10 0)
(1.79727 3.02045e-10 0)
(1.79727 3.34592e-10 0)
(1.79727 3.47438e-10 0)
(1.79727 3.42217e-10 0)
(1.79727 3.18433e-10 0)
(1.79727 2.74703e-10 0)
(1.79727 2.1043e-10 0)
(1.79727 1.25264e-10 0)
(1.79727 1.90238e-11 0)
(1.79727 -1.08301e-10 0)
(1.79727 -2.56194e-10 0)
(1.79727 -4.22012e-10 0)
(1.79727 -5.96073e-10 0)
(1.79727 -7.17008e-10 0)
(1.79727 -6.58746e-10 0)
(1.79727 -2.41783e-10 0)
(1.81663 2.79769e-10 0)
(1.81663 2.91535e-10 0)
(1.81663 3.11079e-10 0)
(1.81663 3.48804e-10 0)
(1.81663 3.72087e-10 0)
(1.81663 3.8499e-10 0)
(1.81663 3.81208e-10 0)
(1.81663 3.61369e-10 0)
(1.81663 3.23557e-10 0)
(1.81663 2.6707e-10 0)
(1.81663 1.91539e-10 0)
(1.81663 9.67578e-11 0)
(1.81663 -1.74435e-11 0)
(1.81663 -1.51194e-10 0)
(1.81663 -3.04406e-10 0)
(1.81663 -4.75965e-10 0)
(1.81663 -6.60523e-10 0)
(1.81663 -8.2582e-10 0)
(1.81663 -8.61508e-10 0)
(1.81663 -3.12783e-10 0)
(1.83466 4.65982e-10 0)
(1.83466 4.29283e-10 0)
(1.83466 4.14772e-10 0)
(1.83466 4.32496e-10 0)
(1.83466 4.37909e-10 0)
(1.83466 4.31115e-10 0)
(1.83466 4.12597e-10 0)
(1.83466 3.77421e-10 0)
(1.83466 3.25638e-10 0)
(1.83466 2.56812e-10 0)
(1.83466 1.70729e-10 0)
(1.83466 6.72505e-11 0)
(1.83466 -5.38038e-11 0)
(1.83466 -1.92715e-10 0)
(1.83466 -3.50005e-10 0)
(1.83466 -5.2677e-10 0)
(1.83466 -7.24616e-10 0)
(1.83466 -9.33211e-10 0)
(1.83466 -1.06289e-09 0)
(1.83466 -3.78059e-10 0)
(1.8515 6.46468e-10 0)
(1.8515 5.70005e-10 0)
(1.8515 5.20113e-10 0)
(1.8515 5.16201e-10 0)
(1.8515 5.02705e-10 0)
(1.8515 4.77014e-10 0)
(1.8515 4.41571e-10 0)
(1.8515 3.90277e-10 0)
(1.8515 3.24326e-10 0)
(1.8515 2.43365e-10 0)
(1.8515 1.47252e-10 0)
(1.8515 3.58811e-11 0)
(1.8515 -9.09579e-11 0)
(1.8515 -2.3372e-10 0)
(1.8515 -3.93629e-10 0)
(1.8515 -5.74285e-10 0)
(1.8515 -7.85293e-10 0)
(1.8515 -1.03772e-09 0)
(1.8515 -1.26035e-09 0)
(1.8515 -4.39506e-10 0)
(1.86725 8.21708e-10 0)
(1.86725 7.14807e-10 0)
(1.86725 6.29989e-10 0)
(1.86725 6.02974e-10 0)
(1.86725 5.693e-10 0)
(1.86725 5.24024e-10 0)
(1.86725 4.69202e-10 0)
(1.86725 4.00524e-10 0)
(1.86725 3.19515e-10 0)
(1.86725 2.25961e-10 0)
(1.86725 1.19796e-10 0)
(1.86725 9.27619e-13 0)
(1.86725 -1.30907e-10 0)
(1.86725 -2.76379e-10 0)
(1.86725 -4.37504e-10 0)
(1.86725 -6.20607e-10 0)
(1.86725 -8.43712e-10 0)
(1.86725 -1.13927e-09 0)
(1.86725 -1.45291e-09 0)
(1.86725 -4.97628e-10 0)
(1.88203 1.00138e-09 0)
(1.88203 8.68744e-10 0)
(1.88203 7.45394e-10 0)
(1.88203 6.90496e-10 0)
(1.88203 6.33166e-10 0)
(1.88203 5.64733e-10 0)
(1.88203 4.87702e-10 0)
(1.88203 4.00394e-10 0)
(1.88203 3.04035e-10 0)
(1.88203 1.984e-10 0)
(1.88203 8.33524e-11 0)
(1.88203 -4.13102e-11 0)
(1.88203 -1.75987e-10 0)
(1.88203 -3.21633e-10 0)
(1.88203 -4.81117e-10 0)
(1.88203 -6.63567e-10 0)
(1.88203 -8.95488e-10 0)
(1.88203 -1.22998e-09 0)
(1.88203 -1.62558e-09 0)
(1.88203 -5.42633e-10 0)
(1.89593 1.20155e-09 0)
(1.89593 1.03644e-09 0)
(1.89593 8.63204e-10 0)
(1.89593 7.72247e-10 0)
(1.89593 6.86303e-10 0)
(1.89593 5.89595e-10 0)
(1.89593 4.88248e-10 0)
(1.89593 3.82178e-10 0)
(1.89593 2.71779e-10 0)
(1.89593 1.56395e-10 0)
(1.89593 3.54666e-11 0)
(1.89593 -9.15734e-11 0)
(1.89593 -2.25424e-10 0)
(1.89593 -3.6741e-10 0)
(1.89593 -5.21291e-10 0)
(1.89593 -6.99e-10 0)
(1.89593 -9.35514e-10 0)
(1.89593 -1.30442e-09 0)
(1.89593 -1.77802e-09 0)
(1.89593 -5.62039e-10 0)
(1.90935 1.36322e-09 0)
(1.90935 1.15845e-09 0)
(1.90935 9.35184e-10 0)
(1.90935 8.14293e-10 0)
(1.90935 7.08019e-10 0)
(1.90935 5.93246e-10 0)
(1.90935 4.80792e-10 0)
(1.90935 3.67464e-10 0)
(1.90935 2.53044e-10 0)
(1.90935 1.361e-10 0)
(1.90935 1.54825e-11 0)
(1.90935 -1.09748e-10 0)
(1.90935 -2.40547e-10 0)
(1.90935 -3.78588e-10 0)
(1.90935 -5.28606e-10 0)
(1.90935 -7.0563e-10 0)
(1.90935 -9.53739e-10 0)
(1.90935 -1.36834e-09 0)
(1.90935 -1.9382e-09 0)
(1.90935 -6.00654e-10 0)
(1.92255 1.43757e-09 0)
(1.92255 1.2155e-09 0)
(1.92255 9.89265e-10 0)
(1.92255 8.68166e-10 0)
(1.92255 7.59078e-10 0)
(1.92255 6.39331e-10 0)
(1.92255 5.21841e-10 0)
(1.92255 4.02658e-10 0)
(1.92255 2.82304e-10 0)
(1.92255 1.59407e-10 0)
(1.92255 3.28413e-11 0)
(1.92255 -9.83389e-11 0)
(1.92255 -2.35266e-10 0)
(1.92255 -3.80159e-10 0)
(1.92255 -5.39169e-10 0)
(1.92255 -7.30761e-10 0)
(1.92255 -1.00724e-09 0)
(1.92255 -1.47762e-09 0)
(1.92255 -2.1183e-09 0)
(1.92255 -7.21417e-10 0)
(1.9355 1.20573e-09 0)
(1.9355 1.08638e-09 0)
(1.9355 9.7672e-10 0)
(1.9355 9.24458e-10 0)
(1.9355 8.62462e-10 0)
(1.9355 7.73392e-10 0)
(1.9355 6.60348e-10 0)
(1.9355 5.31735e-10 0)
(1.9355 3.91945e-10 0)
(1.9355 2.44199e-10 0)
(1.9355 9.09389e-11 0)
(1.9355 -6.6138e-11 0)
(1.9355 -2.2625e-10 0)
(1.9355 -3.90305e-10 0)
(1.9355 -5.63871e-10 0)
(1.9355 -7.65906e-10 0)
(1.9355 -1.05158e-09 0)
(1.9355 -1.53628e-09 0)
(1.9355 -2.20804e-09 0)
(1.9355 -9.39691e-10 0)
(1.94815 1.4476e-09 0)
(1.94815 1.24824e-09 0)
(1.94815 1.10152e-09 0)
(1.94815 9.85581e-10 0)
(1.94815 8.75697e-10 0)
(1.94815 7.39812e-10 0)
(1.94815 5.93166e-10 0)
(1.94815 4.40129e-10 0)
(1.94815 2.83982e-10 0)
(1.94815 1.27225e-10 0)
(1.94815 -2.78339e-11 0)
(1.94815 -1.7891e-10 0)
(1.94815 -3.24462e-10 0)
(1.94815 -4.63919e-10 0)
(1.94815 -6.03523e-10 0)
(1.94815 -7.62755e-10 0)
(1.94815 -1.00435e-09 0)
(1.94815 -1.47408e-09 0)
(1.94815 -2.21371e-09 0)
(1.94815 -7.907e-10 0)
(1.96046 2.15228e-09 0)
(1.96046 1.85301e-09 0)
(1.96046 1.44562e-09 0)
(1.96046 1.19189e-09 0)
(1.96046 9.63658e-10 0)
(1.96046 7.25659e-10 0)
(1.96046 5.11466e-10 0)
(1.96046 3.16022e-10 0)
(1.96046 1.37261e-10 0)
(1.96046 -2.77158e-11 0)
(1.96046 -1.81175e-10 0)
(1.96046 -3.24711e-10 0)
(1.96046 -4.59574e-10 0)
(1.96046 -5.88434e-10 0)
(1.96046 -7.20437e-10 0)
(1.96046 -8.81237e-10 0)
(1.96046 -1.1488e-09 0)
(1.96046 -1.70095e-09 0)
(1.96046 -2.57312e-09 0)
(1.96046 -6.90612e-10 0)
(1.97237 2.00654e-09 0)
(1.97237 1.73259e-09 0)
(1.97237 1.39247e-09 0)
(1.97237 1.19655e-09 0)
(1.97237 1.0217e-09 0)
(1.97237 8.27482e-10 0)
(1.97237 6.39752e-10 0)
(1.97237 4.582e-10 0)
(1.97237 2.83674e-10 0)
(1.97237 1.15482e-10 0)
(1.97237 -4.72443e-11 0)
(1.97237 -2.05417e-10 0)
(1.97237 -3.60527e-10 0)
(1.97237 -5.16735e-10 0)
(1.97237 -6.83833e-10 0)
(1.97237 -8.92569e-10 0)
(1.97237 -1.2296e-09 0)
(1.97237 -1.88227e-09 0)
(1.97237 -2.85686e-09 0)
(1.97237 -9.97533e-10 0)
(1.98384 2.09463e-09 0)
(1.98384 1.83398e-09 0)
(1.98384 1.49333e-09 0)
(1.98384 1.28767e-09 0)
(1.98384 1.10056e-09 0)
(1.98384 8.8938e-10 0)
(1.98384 6.83019e-10 0)
(1.98384 4.83396e-10 0)
(1.98384 2.92034e-10 0)
(1.98384 1.08598e-10 0)
(1.98384 -6.75162e-11 0)
(1.98384 -2.37081e-10 0)
(1.98384 -4.01406e-10 0)
(1.98384 -5.65131e-10 0)
(1.98384 -7.38429e-10 0)
(1.98384 -9.53406e-10 0)
(1.98384 -1.3008e-09 0)
(1.98384 -1.97517e-09 0)
(1.98384 -2.9687e-09 0)
(1.98384 -1.0614e-09 0)
(1.99479 2.09227e-09 0)
(1.99479 1.83573e-09 0)
(1.99479 1.49693e-09 0)
(1.99479 1.29218e-09 0)
(1.99479 1.10835e-09 0)
(1.99479 9.00787e-10 0)
(1.99479 6.97295e-10 0)
(1.99479 5.00305e-10 0)
(1.99479 3.10707e-10 0)
(1.99479 1.27952e-10 0)
(1.99479 -4.86185e-11 0)
(1.99479 -2.19777e-10 0)
(1.99479 -3.86863e-10 0)
(1.99479 -5.54397e-10 0)
(1.99479 -7.32608e-10 0)
(1.99479 -9.54476e-10 0)
(1.99479 -1.31315e-09 0)
(1.99479 -2.00772e-09 0)
(1.99479 -3.02167e-09 0)
(1.99479 -1.12177e-09 0)
(2.00516 2.05789e-09 0)
(2.00516 1.81306e-09 0)
(2.00516 1.48469e-09 0)
(2.00516 1.28424e-09 0)
(2.00516 1.10419e-09 0)
(2.00516 8.99826e-10 0)
(2.00516 6.98424e-10 0)
(2.00516 5.03201e-10 0)
(2.00516 3.15049e-10 0)
(2.00516 1.33535e-10 0)
(2.00516 -4.18462e-11 0)
(2.00516 -2.11731e-10 0)
(2.00516 -3.77312e-10 0)
(2.00516 -5.43114e-10 0)
(2.00516 -7.19375e-10 0)
(2.00516 -9.39407e-10 0)
(2.00516 -1.29746e-09 0)
(2.00516 -1.99576e-09 0)
(2.00516 -3.02372e-09 0)
(2.00516 -1.14536e-09 0)
(2.01488 1.97391e-09 0)
(2.01488 1.74429e-09 0)
(2.01488 1.43151e-09 0)
(2.01488 1.23921e-09 0)
(2.01488 1.06711e-09 0)
(2.01488 8.71323e-10 0)
(2.01488 6.7794e-10 0)
(2.01488 4.90715e-10 0)
(2.01488 3.10363e-10 0)
(2.01488 1.3641e-10 0)
(2.01488 -3.16281e-11 0)
(2.01488 -1.94364e-10 0)
(2.01488 -3.52967e-10 0)
(2.01488 -5.1183e-10 0)
(2.01488 -6.81062e-10 0)
(2.01488 -8.93607e-10 0)
(2.01488 -1.2429e-09 0)
(2.01488 -1.93164e-09 0)
(2.01488 -2.96975e-09 0)
(2.01488 -1.13255e-09 0)
(2.02387 1.8341e-09 0)
(2.02387 1.62621e-09 0)
(2.02387 1.33843e-09 0)
(2.02387 1.16015e-09 0)
(2.02387 1.00108e-09 0)
(2.02387 8.19525e-10 0)
(2.02387 6.39394e-10 0)
(2.02387 4.6502e-10 0)
(2.02387 2.97045e-10 0)
(2.02387 1.35029e-10 0)
(2.02387 -2.14123e-11 0)
(2.02387 -1.72791e-10 0)
(2.02387 -3.20161e-10 0)
(2.02387 -4.67684e-10 0)
(2.02387 -6.25025e-10 0)
(2.02387 -8.23821e-10 0)
(2.02387 -1.15403e-09 0)
(2.02387 -1.81345e-09 0)
(2.02387 -2.83729e-09 0)
(2.02387 -1.08081e-09 0)
(2.03206 1.63291e-09 0)
(2.03206 1.45303e-09 0)
(2.03206 1.19953e-09 0)
(2.03206 1.04126e-09 0)
(2.03206 9.00326e-10 0)
(2.03206 7.3907e-10 0)
(2.03206 5.78087e-10 0)
(2.03206 4.22092e-10 0)
(2.03206 2.71784e-10 0)
(2.03206 1.26782e-10 0)
(2.03206 -1.31603e-11 0)
(2.03206 -1.48425e-10 0)
(2.03206 -2.79904e-10 0)
(2.03206 -4.11381e-10 0)
(2.03206 -5.51734e-10 0)
(2.03206 -7.30108e-10 0)
(2.03206 -1.02924e-09 0)
(2.03206 -1.63174e-09 0)
(2.03206 -2.58118e-09 0)
(2.03206 -9.87479e-10 0)
(2.03938 1.37923e-09 0)
(2.03938 1.23228e-09 0)
(2.03938 1.02087e-09 0)
(2.03938 8.87871e-10 0)
(2.03938 7.69156e-10 0)
(2.03938 6.33496e-10 0)
(2.03938 4.96759e-10 0)
(2.03938 3.63806e-10 0)
(2.03938 2.35564e-10 0)
(2.03938 1.11755e-10 0)
(2.03938 -7.69477e-12 0)
(2.03938 -1.22992e-10 0)
(2.03938 -2.34804e-10 0)
(2.03938 -3.46411e-10 0)
(2.03938 -4.65569e-10 0)
(2.03938 -6.17815e-10 0)
(2.03938 -8.75096e-10 0)
(2.03938 -1.39472e-09 0)
(2.03938 -2.21018e-09 0)
(2.03938 -8.55805e-10 0)
(2.04577 1.09534e-09 0)
(2.04577 9.83469e-10 0)
(2.04577 8.18341e-10 0)
(2.04577 7.13749e-10 0)
(2.04577 6.19363e-10 0)
(2.04577 5.12721e-10 0)
(2.04577 4.03315e-10 0)
(2.04577 2.96341e-10 0)
(2.04577 1.92964e-10 0)
(2.04577 9.30186e-11 0)
(2.04577 -3.38611e-12 0)
(2.04577 -9.62722e-11 0)
(2.04577 -1.86066e-10 0)
(2.04577 -2.75454e-10 0)
(2.04577 -3.70866e-10 0)
(2.04577 -4.93508e-10 0)
(2.04577 -7.02375e-10 0)
(2.04577 -1.12439e-09 0)
(2.04577 -1.78018e-09 0)
(2.04577 -6.96188e-10 0)
(2.05119 8.07244e-10 0)
(2.05119 7.29174e-10 0)
(2.05119 6.09657e-10 0)
(2.05119 5.337e-10 0)
(2.05119 4.63484e-10 0)
(2.05119 3.86453e-10 0)
(2.05119 3.04986e-10 0)
(2.05119 2.24682e-10 0)
(2.05119 1.46906e-10 0)
(2.05119 7.15818e-11 0)
(2.05119 -1.02327e-12 0)
(2.05119 -7.07677e-11 0)
(2.05119 -1.37853e-10 0)
(2.05119 -2.04321e-10 0)
(2.05119 -2.75195e-10 0)
(2.05119 -3.66965e-10 0)
(2.05119 -5.24696e-10 0)
(2.05119 -8.43125e-10 0)
(2.05119 -1.33014e-09 0)
(2.05119 -5.24095e-10 0)
(2.05563 5.44966e-10 0)
(2.05563 4.95535e-10 0)
(2.05563 4.15338e-10 0)
(2.05563 3.64805e-10 0)
(2.05563 3.16224e-10 0)
(2.05563 2.65467e-10 0)
(2.05563 2.0982e-10 0)
(2.05563 1.54237e-10 0)
(2.05563 1.00359e-10 0)
(2.05563 4.81835e-11 0)
(2.05563 -1.92668e-12 0)
(2.05563 -4.97184e-11 0)
(2.05563 -9.52206e-11 0)
(2.05563 -1.39814e-10 0)
(2.05563 -1.87183e-10 0)
(2.05563 -2.49117e-10 0)
(2.05563 -3.57132e-10 0)
(2.05563 -5.75622e-10 0)
(2.05563 -9.02996e-10 0)
(2.05563 -3.55959e-10 0)
(2.05911 3.30836e-10 0)
(2.05911 3.02776e-10 0)
(2.05911 2.52699e-10 0)
(2.05911 2.22231e-10 0)
(2.05911 1.91327e-10 0)
(2.05911 1.60233e-10 0)
(2.05911 1.26553e-10 0)
(2.05911 9.16229e-11 0)
(2.05911 5.78725e-11 0)
(2.05911 2.53645e-11 0)
(2.05911 -5.51806e-12 0)
(2.05911 -3.44739e-11 0)
(2.05911 -6.14149e-11 0)
(2.05911 -8.71459e-11 0)
(2.05911 -1.14142e-10 0)
(2.05911 -1.49937e-10 0)
(2.05911 -2.14211e-10 0)
(2.05911 -3.4607e-10 0)
(2.05911 -5.39407e-10 0)
(2.05911 -2.09766e-10 0)
(2.06166 1.77611e-10 0)
(2.06166 1.63178e-10 0)
(2.06166 1.32911e-10 0)
(2.06166 1.15961e-10 0)
(2.06166 9.7643e-11 0)
(2.06166 7.90414e-11 0)
(2.06166 6.16278e-11 0)
(2.06166 4.18474e-11 0)
(2.06166 2.30539e-11 0)
(2.06166 5.34923e-12 0)
(2.06166 -1.09173e-11 0)
(2.06166 -2.54534e-11 0)
(2.06166 -3.8111e-11 0)
(2.06166 -4.92631e-11 0)
(2.06166 -6.03925e-11 0)
(2.06166 -7.5599e-11 0)
(2.06166 -1.05404e-10 0)
(2.06166 -1.70553e-10 0)
(2.06166 -2.64988e-10 0)
(2.06166 -9.69351e-11 0)
(2.06334 8.4783e-11 0)
(2.06334 7.8223e-11 0)
(2.06334 6.0621e-11 0)
(2.06334 4.75098e-11 0)
(2.06334 3.63323e-11 0)
(2.06334 2.56891e-11 0)
(2.06334 1.77482e-11 0)
(2.06334 7.89814e-12 0)
(2.06334 -1.08115e-12 0)
(2.06334 -9.09427e-12 0)
(2.06334 -1.58305e-11 0)
(2.06334 -2.10136e-11 0)
(2.06334 -2.44243e-11 0)
(2.06334 -2.62775e-11 0)
(2.06334 -2.72353e-11 0)
(2.06334 -2.90551e-11 0)
(2.06334 -3.62667e-11 0)
(2.06334 -5.72623e-11 0)
(2.06334 -8.98777e-11 0)
(2.06334 -2.17546e-11 0)
(2.06424 4.49556e-11 0)
(2.06424 3.87827e-11 0)
(2.06424 2.45156e-11 0)
(2.06424 7.68955e-12 0)
(2.06424 -1.12414e-12 0)
(2.06424 -8.86249e-12 0)
(2.06424 -1.38987e-11 0)
(2.06424 -1.86867e-11 0)
(2.06424 -2.24077e-11 0)
(2.06424 -2.43759e-11 0)
(2.06424 -2.4361e-11 0)
(2.06424 -2.28768e-11 0)
(2.06424 -2.00205e-11 0)
(2.06424 -1.57506e-11 0)
(2.06424 -9.30351e-12 0)
(2.06424 -1.52968e-12 0)
(2.06424 7.04053e-12 0)
(2.06424 1.32553e-11 0)
(2.06424 1.47253e-11 0)
(2.06424 3.16806e-11 0)
(2.06441 -4.89298e-11 0)
(2.06441 -3.98258e-11 0)
(2.06441 -1.18977e-11 0)
(2.06441 -6.10853e-12 0)
(2.06441 3.44171e-11 0)
(2.06441 3.33908e-11 0)
(2.06441 2.69766e-11 0)
(2.06441 2.04539e-11 0)
(2.06441 1.48065e-11 0)
(2.06441 1.10094e-11 0)
(2.06441 9.47321e-12 0)
(2.06441 1.01587e-11 0)
(2.06441 1.26668e-11 0)
(2.06441 1.66071e-11 0)
(2.06441 2.02601e-11 0)
(2.06441 1.90674e-11 0)
(2.06441 3.23043e-12 0)
(2.06441 -8.87758e-12 0)
(2.06441 -6.06671e-11 0)
(2.06441 -5.57303e-11 0)
(2.06394 5.91977e-11 0)
(2.06394 4.44346e-11 0)
(2.06394 1.68958e-11 0)
(2.06394 1.35351e-11 0)
(2.06394 3.53549e-12 0)
(2.06394 -6.99229e-12 0)
(2.06394 -1.47263e-11 0)
(2.06394 -2.22963e-11 0)
(2.06394 -2.75429e-11 0)
(2.06394 -3.02391e-11 0)
(2.06394 -3.07407e-11 0)
(2.06394 -2.94855e-11 0)
(2.06394 -2.64295e-11 0)
(2.06394 -2.14748e-11 0)
(2.06394 -1.43544e-11 0)
(2.06394 -5.31938e-12 0)
(2.06394 5.33612e-12 0)
(2.06394 1.37468e-11 0)
(2.06394 2.75435e-11 0)
(2.06394 4.5142e-11 0)
(2.06289 9.35956e-11 0)
(2.06289 7.78297e-11 0)
(2.06289 5.03971e-11 0)
(2.06289 3.45042e-11 0)
(2.06289 2.01277e-11 0)
(2.06289 6.14149e-12 0)
(2.06289 -4.56802e-12 0)
(2.06289 -1.47253e-11 0)
(2.06289 -2.30771e-11 0)
(2.06289 -2.93654e-11 0)
(2.06289 -3.35308e-11 0)
(2.06289 -3.55038e-11 0)
(2.06289 -3.53681e-11 0)
(2.06289 -3.35364e-11 0)
(2.06289 -3.01425e-11 0)
(2.06289 -2.58952e-11 0)
(2.06289 -2.19957e-11 0)
(2.06289 -2.06864e-11 0)
(2.06289 -1.42632e-11 0)
(2.06289 4.00081e-11 0)
(2.06132 1.27485e-10 0)
(2.06132 1.08094e-10 0)
(2.06132 7.63334e-11 0)
(2.06132 5.6323e-11 0)
(2.06132 3.81959e-11 0)
(2.06132 2.03458e-11 0)
(2.06132 5.99184e-12 0)
(2.06132 -7.72516e-12 0)
(2.06132 -1.93308e-11 0)
(2.06132 -2.86599e-11 0)
(2.06132 -3.57274e-11 0)
(2.06132 -4.05597e-11 0)
(2.06132 -4.32543e-11 0)
(2.06132 -4.41426e-11 0)
(2.06132 -4.40599e-11 0)
(2.06132 -4.42221e-11 0)
(2.06132 -4.70125e-11 0)
(2.06132 -5.53312e-11 0)
(2.06132 -5.60035e-11 0)
(2.06132 3.29807e-11 0)
(2.05927 1.6365e-10 0)
(2.05927 1.42224e-10 0)
(2.05927 1.06173e-10 0)
(2.05927 8.02721e-11 0)
(2.05927 5.75377e-11 0)
(2.05927 3.50424e-11 0)
(2.05927 1.61474e-11 0)
(2.05927 -1.82859e-12 0)
(2.05927 -1.72901e-11 0)
(2.05927 -3.01364e-11 0)
(2.05927 -4.04236e-11 0)
(2.05927 -4.82421e-11 0)
(2.05927 -5.37755e-11 0)
(2.05927 -5.74864e-11 0)
(2.05927 -6.05168e-11 0)
(2.05927 -6.4754e-11 0)
(2.05927 -7.33856e-11 0)
(2.05927 -8.92158e-11 0)
(2.05927 -9.37836e-11 0)
(2.05927 2.96228e-11 0)
(2.0568 1.71436e-10 0)
(2.0568 1.49741e-10 0)
(2.0568 1.14549e-10 0)
(2.0568 8.94585e-11 0)
(2.0568 6.77952e-11 0)
(2.0568 4.60767e-11 0)
(2.0568 2.73377e-11 0)
(2.0568 9.13046e-12 0)
(2.0568 -7.05464e-12 0)
(2.0568 -2.11233e-11 0)
(2.0568 -3.31285e-11 0)
(2.0568 -4.31759e-11 0)
(2.0568 -5.14987e-11 0)
(2.0568 -5.86963e-11 0)
(2.0568 -6.61425e-11 0)
(2.0568 -7.6062e-11 0)
(2.0568 -9.20314e-11 0)
(2.0568 -1.16137e-10 0)
(2.0568 -1.23765e-10 0)
(2.0568 1.34619e-11 0)
(2.05395 1.63527e-10 0)
(2.05395 1.41129e-10 0)
(2.05395 1.09368e-10 0)
(2.05395 8.98347e-11 0)
(2.05395 7.16077e-11 0)
(2.05395 5.28781e-11 0)
(2.05395 3.63843e-11 0)
(2.05395 1.97808e-11 0)
(2.05395 4.498e-12 0)
(2.05395 -9.35766e-12 0)
(2.05395 -2.18203e-11 0)
(2.05395 -3.29967e-11 0)
(2.05395 -4.31748e-11 0)
(2.05395 -5.31226e-11 0)
(2.05395 -6.4189e-11 0)
(2.05395 -7.90168e-11 0)
(2.05395 -1.01542e-10 0)
(2.05395 -1.33629e-10 0)
(2.05395 -1.45365e-10 0)
(2.05395 -4.95213e-12 0)
(2.05076 1.74331e-10 0)
(2.05076 1.52993e-10 0)
(2.05076 1.21459e-10 0)
(2.05076 1.00899e-10 0)
(2.05076 8.11084e-11 0)
(2.05076 6.0679e-11 0)
(2.05076 4.24201e-11 0)
(2.05076 2.40377e-11 0)
(2.05076 7.01999e-12 0)
(2.05076 -8.53003e-12 0)
(2.05076 -2.26631e-11 0)
(2.05076 -3.5516e-11 0)
(2.05076 -4.74319e-11 0)
(2.05076 -5.92799e-11 0)
(2.05076 -7.2487e-11 0)
(2.05076 -8.98717e-11 0)
(2.05076 -1.15429e-10 0)
(2.05076 -1.50272e-10 0)
(2.05076 -1.5585e-10 0)
(2.05076 -7.82446e-12 0)
(2.04726 1.66745e-10 0)
(2.04726 1.47754e-10 0)
(2.04726 1.2022e-10 0)
(2.04726 1.00233e-10 0)
(2.04726 8.16982e-11 0)
(2.04726 6.25474e-11 0)
(2.04726 4.534e-11 0)
(2.04726 2.77678e-11 0)
(2.04726 1.12595e-11 0)
(2.04726 -4.10066e-12 0)
(2.04726 -1.8373e-11 0)
(2.04726 -3.17091e-11 0)
(2.04726 -4.44797e-11 0)
(2.04726 -5.74925e-11 0)
(2.04726 -7.2177e-11 0)
(2.04726 -9.12617e-11 0)
(2.04726 -1.18448e-10 0)
(2.04726 -1.5381e-10 0)
(2.04726 -1.58694e-10 0)
(2.04726 -1.30127e-11 0)
(2.0435 1.50086e-10 0)
(2.0435 1.33952e-10 0)
(2.0435 1.11374e-10 0)
(2.0435 9.41888e-11 0)
(2.0435 7.80521e-11 0)
(2.0435 6.12032e-11 0)
(2.0435 4.6011e-11 0)
(2.0435 3.01418e-11 0)
(2.0435 1.49748e-11 0)
(2.0435 6.06847e-13 0)
(2.0435 -1.30139e-11 0)
(2.0435 -2.60331e-11 0)
(2.0435 -3.88189e-11 0)
(2.0435 -5.20703e-11 0)
(2.0435 -6.71636e-11 0)
(2.0435 -8.66363e-11 0)
(2.0435 -1.13844e-10 0)
(2.0435 -1.48397e-10 0)
(2.0435 -1.56146e-10 0)
(2.0435 -1.84191e-11 0)
(2.03952 1.27722e-10 0)
(2.03952 1.14998e-10 0)
(2.03952 9.77605e-11 0)
(2.03952 8.39382e-11 0)
(2.03952 7.07561e-11 0)
(2.03952 5.68209e-11 0)
(2.03952 4.42911e-11 0)
(2.03952 3.08136e-11 0)
(2.03952 1.76704e-11 0)
(2.03952 4.97198e-12 0)
(2.03952 -7.32698e-12 0)
(2.03952 -1.93646e-11 0)
(2.03952 -3.14641e-11 0)
(2.03952 -4.42183e-11 0)
(2.03952 -5.88806e-11 0)
(2.03952 -7.7709e-11 0)
(2.03952 -1.03657e-10 0)
(2.03952 -1.36156e-10 0)
(2.03952 -1.48113e-10 0)
(2.03952 -2.3062e-11 0)
(2.03537 1.01896e-10 0)
(2.03537 9.28583e-11 0)
(2.03537 8.11434e-11 0)
(2.03537 7.09176e-11 0)
(2.03537 6.09514e-11 0)
(2.03537 5.02288e-11 0)
(2.03537 4.06398e-11 0)
(2.03537 2.99434e-11 0)
(2.03537 1.92311e-11 0)
(2.03537 8.63796e-12 0)
(2.03537 -1.877e-12 0)
(2.03537 -1.24284e-11 0)
(2.03537 -2.32536e-11 0)
(2.03537 -3.48834e-11 0)
(2.03537 -4.84036e-11 0)
(2.03537 -6.57801e-11 0)
(2.03537 -8.96525e-11 0)
(2.03537 -1.19746e-10 0)
(2.03537 -1.34256e-10 0)
(2.03537 -2.63001e-11 0)
(2.03109 7.44864e-11 0)
(2.03109 6.90553e-11 0)
(2.03109 6.27604e-11 0)
(2.03109 5.6053e-11 0)
(2.03109 4.93003e-11 0)
(2.03109 4.18184e-11 0)
(2.03109 3.51246e-11 0)
(2.03109 2.73276e-11 0)
(2.03109 1.92513e-11 0)
(2.03109 1.10312e-11 0)
(2.03109 2.6411e-12 0)
(2.03109 -5.99725e-12 0)
(2.03109 -1.50747e-11 0)
(2.03109 -2.50162e-11 0)
(2.03109 -3.67035e-11 0)
(2.03109 -5.17584e-11 0)
(2.03109 -7.24561e-11 0)
(2.03109 -9.88915e-11 0)
(2.03109 -1.1505e-10 0)
(2.03109 -2.77591e-11 0)
(2.02672 4.73901e-11 0)
(2.02672 4.52379e-11 0)
(2.02672 4.36983e-11 0)
(2.02672 4.00946e-11 0)
(2.02672 3.62679e-11 0)
(2.02672 3.17889e-11 0)
(2.02672 2.7678e-11 0)
(2.02672 2.26987e-11 0)
(2.02672 1.72402e-11 0)
(2.02672 1.14754e-11 0)
(2.02672 5.3908e-12 0)
(2.02672 -1.06442e-12 0)
(2.02672 -8.02301e-12 0)
(2.02672 -1.57892e-11 0)
(2.02672 -2.50069e-11 0)
(2.02672 -3.688e-11 0)
(2.02672 -5.31587e-11 0)
(2.02672 -7.40016e-11 0)
(2.02672 -8.8345e-11 0)
(2.02672 -2.6967e-11 0)
(2.02233 2.35283e-11 0)
(2.02233 2.40766e-11 0)
(2.02233 2.61011e-11 0)
(2.02233 2.4834e-11 0)
(2.02233 2.33288e-11 0)
(2.02233 2.13123e-11 0)
(2.02233 1.92578e-11 0)
(2.02233 1.67313e-11 0)
(2.02233 1.36396e-11 0)
(2.02233 1.01984e-11 0)
(2.02233 6.40507e-12 0)
(2.02233 2.23436e-12 0)
(2.02233 -2.39266e-12 0)
(2.02233 -7.66681e-12 0)
(2.02233 -1.40063e-11 0)
(2.02233 -2.2215e-11 0)
(2.02233 -3.35406e-11 0)
(2.02233 -4.82512e-11 0)
(2.02233 -6.01011e-11 0)
(2.02233 -2.35654e-11 0)
(2.01796 5.07048e-12 0)
(2.01796 7.36767e-12 0)
(2.01796 1.15268e-11 0)
(2.01796 1.14969e-11 0)
(2.01796 1.13866e-11 0)
(2.01796 1.09877e-11 0)
(2.01796 1.03529e-11 0)
(2.01796 9.55465e-12 0)
(2.01796 8.34927e-12 0)
(2.01796 6.90046e-12 0)
(2.01796 5.20985e-12 0)
(2.01796 3.27468e-12 0)
(2.01796 1.0594e-12 0)
(2.01796 -1.53243e-12 0)
(2.01796 -4.72406e-12 0)
(2.01796 -8.96657e-12 0)
(2.01796 -1.50479e-11 0)
(2.01796 -2.33381e-11 0)
(2.01796 -3.1864e-11 0)
(2.01796 -1.70787e-11 0)
(2.01369 -5.89754e-12 0)
(2.01369 -2.96869e-12 0)
(2.01369 1.423e-12 0)
(2.01369 1.2367e-12 0)
(2.01369 1.32665e-12 0)
(2.01369 1.40289e-12 0)
(2.01369 1.40151e-12 0)
(2.01369 1.42354e-12 0)
(2.01369 1.41747e-12 0)
(2.01369 1.42848e-12 0)
(2.01369 1.46915e-12 0)
(2.01369 1.55518e-12 0)
(2.01369 1.66256e-12 0)
(2.01369 1.80724e-12 0)
(2.01369 1.92606e-12 0)
(2.01369 1.76213e-12 0)
(2.01369 9.58475e-13 0)
(2.01369 -9.2055e-13 0)
(2.01369 -5.29403e-12 0)
(2.01369 -7.34213e-12 0)
(2.00958 -8.04252e-12 0)
(2.00958 -5.71711e-12 0)
(2.00958 -3.05327e-12 0)
(2.00958 -4.91621e-12 0)
(2.00958 -5.98355e-12 0)
(2.00958 -6.8065e-12 0)
(2.00958 -7.19016e-12 0)
(2.00958 -7.18052e-12 0)
(2.00958 -6.79938e-12 0)
(2.00958 -5.99873e-12 0)
(2.00958 -4.72822e-12 0)
(2.00958 -2.974e-12 0)
(2.00958 -7.28346e-13 0)
(2.00958 2.01698e-12 0)
(2.00958 5.26878e-12 0)
(2.00958 9.0358e-12 0)
(2.00958 1.32168e-11 0)
(2.00958 1.73636e-11 0)
(2.00958 1.78651e-11 0)
(2.00958 5.3701e-12 0)
(2.00571 -1.29771e-12 0)
(2.00571 -5.32137e-13 0)
(2.00571 -1.52036e-12 0)
(2.00571 -6.43503e-12 0)
(2.00571 -9.89715e-12 0)
(2.00571 -1.28811e-11 0)
(2.00571 -1.45381e-11 0)
(2.00571 -1.559e-11 0)
(2.00571 -1.56813e-11 0)
(2.00571 -1.47739e-11 0)
(2.00571 -1.29295e-11 0)
(2.00571 -1.00542e-11 0)
(2.00571 -6.13609e-12 0)
(2.00571 -1.15779e-12 0)
(2.00571 4.91852e-12 0)
(2.00571 1.21774e-11 0)
(2.00571 2.06689e-11 0)
(2.00571 2.98832e-11 0)
(2.00571 3.54511e-11 0)
(2.00571 1.96644e-11 0)
(2.00218 1.47516e-11 0)
(2.00218 1.09905e-11 0)
(2.00218 5.16391e-12 0)
(2.00218 -3.54631e-12 0)
(2.00218 -1.01738e-11 0)
(2.00218 -1.61093e-11 0)
(2.00218 -1.96656e-11 0)
(2.00218 -2.26164e-11 0)
(2.00218 -2.40375e-11 0)
(2.00218 -2.36447e-11 0)
(2.00218 -2.18922e-11 0)
(2.00218 -1.85664e-11 0)
(2.00218 -1.36338e-11 0)
(2.00218 -7.08168e-12 0)
(2.00218 1.11797e-12 0)
(2.00218 1.10396e-11 0)
(2.00218 2.27505e-11 0)
(2.00218 3.56082e-11 0)
(2.00218 4.58314e-11 0)
(2.00218 3.40512e-11 0)
(1.99909 3.05276e-11 0)
(1.99909 2.55706e-11 0)
(1.99909 1.49616e-11 0)
(1.99909 2.58485e-12 0)
(1.99909 -7.06111e-12 0)
(1.99909 -1.58232e-11 0)