/*--------------------------------*- C++ -*----------------------------------*\
  =========                 |
  \\      /  F ield         | OpenFOAM: The Open Source CFD Toolbox
   \\    /   O peration     | Website:  https://openfoam.org
    \\  /    A nd           | Version:  6
     \\/     M anipulation  |
\*---------------------------------------------------------------------------*/
FoamFile
{
    version     2.0;
    format      ascii;
    class       volVectorField;
    location    "19.44";
    object      UMean;
}
// * * * * * * * * * * * * * * * * * * * * * * * * * * * * * * * * * * * * * //

dimensions      [0 1 -1 0 0 0 0];

internalField   nonuniform List<vector> 
1380
(
(0.00935791 1.96054e-10 0)
(0.00935791 3.02867e-11 0)
(0.00935791 -6.01775e-11 0)
(0.00935791 -1.00411e-10 0)
(0.00935791 -1.2641e-10 0)
(0.00935791 -1.36579e-10 0)
(0.00935791 -1.36546e-10 0)
(0.00935791 -1.30014e-10 0)
(0.00935791 -1.1692e-10 0)
(0.00935791 -9.66505e-11 0)
(0.00935791 -7.32886e-11 0)
(0.00935791 -4.7224e-11 0)
(0.00935791 -1.5977e-11 0)
(0.00935791 1.64284e-11 0)
(0.00935791 4.75212e-11 0)
(0.00935791 7.87588e-11 0)
(0.00935791 1.081e-10 0)
(0.00935791 1.35775e-10 0)
(0.00935791 1.70659e-10 0)
(0.00935791 2.59669e-10 0)
(0.0145989 -2.11118e-10 0)
(0.0145989 6.04283e-11 0)
(0.0145989 -1.02449e-11 0)
(0.0145989 -1.82361e-11 0)
(0.0145989 -1.31138e-11 0)
(0.0145989 1.04213e-12 0)
(0.0145989 1.99194e-11 0)
(0.0145989 3.95714e-11 0)
(0.0145989 5.89279e-11 0)
(0.0145989 7.73388e-11 0)
(0.0145989 9.39543e-11 0)
(0.0145989 1.07442e-10 0)
(0.0145989 1.15859e-10 0)
(0.0145989 1.17503e-10 0)
(0.0145989 1.10385e-10 0)
(0.0145989 8.97402e-11 0)
(0.0145989 5.17123e-11 0)
(0.0145989 -6.46764e-12 0)
(0.0145989 -1.91784e-10 0)
(0.0145989 -4.93837e-10 0)
(0.0165277 -1.78886e-10 0)
(0.0165277 1.04524e-10 0)
(0.0165277 5.41543e-11 0)
(0.0165277 1.54019e-11 0)
(0.0165277 1.00314e-11 0)
(0.0165277 9.63842e-12 0)
(0.0165277 1.26262e-11 0)
(0.0165277 1.7003e-11 0)
(0.0165277 2.25896e-11 0)
(0.0165277 2.95169e-11 0)
(0.0165277 3.72832e-11 0)
(0.0165277 4.52951e-11 0)
(0.0165277 5.2995e-11 0)
(0.0165277 5.87878e-11 0)
(0.0165277 6.11636e-11 0)
(0.0165277 5.74555e-11 0)
(0.0165277 4.9177e-11 0)
(0.0165277 3.65145e-11 0)
(0.0165277 -1.04617e-10 0)
(0.0165277 -3.90497e-10 0)
(0.0176454 -2.26888e-10 0)
(0.0176454 5.00369e-11 0)
(0.0176454 4.40059e-11 0)
(0.0176454 1.62582e-11 0)
(0.0176454 2.68493e-11 0)
(0.0176454 3.8224e-11 0)
(0.0176454 4.79859e-11 0)
(0.0176454 5.51783e-11 0)
(0.0176454 6.01213e-11 0)
(0.0176454 6.29392e-11 0)
(0.0176454 6.38533e-11 0)
(0.0176454 6.26789e-11 0)
(0.0176454 5.92427e-11 0)
(0.0176454 5.32467e-11 0)
(0.0176454 4.46231e-11 0)
(0.0176454 3.28126e-11 0)
(0.0176454 2.38529e-11 0)
(0.0176454 1.31721e-11 0)
(0.0176454 -1.33318e-10 0)
(0.0176454 -3.95002e-10 0)
(0.0184439 -2.24613e-10 0)
(0.0184439 2.6255e-11 0)
(0.0184439 4.53132e-11 0)
(0.0184439 2.06188e-11 0)
(0.0184439 2.95256e-11 0)
(0.0184439 4.38685e-11 0)
(0.0184439 5.47826e-11 0)
(0.0184439 6.21807e-11 0)
(0.0184439 6.58627e-11 0)
(0.0184439 6.64603e-11 0)
(0.0184439 6.42608e-11 0)
(0.0184439 5.94481e-11 0)
(0.0184439 5.23336e-11 0)
(0.0184439 4.32589e-11 0)
(0.0184439 3.32499e-11 0)
(0.0184439 2.28681e-11 0)
(0.0184439 1.99201e-11 0)
(0.0184439 1.59237e-11 0)
(0.0184439 -1.38748e-10 0)
(0.0184439 -3.62402e-10 0)
(0.0190715 -2.17489e-10 0)
(0.0190715 1.15797e-11 0)
(0.0190715 5.46005e-11 0)
(0.0190715 3.09909e-11 0)
(0.0190715 3.62544e-11 0)
(0.0190715 4.96025e-11 0)
(0.0190715 6.04311e-11 0)
(0.0190715 6.71212e-11 0)
(0.0190715 6.96938e-11 0)
(0.0190715 6.87223e-11 0)
(0.0190715 6.4452e-11 0)
(0.0190715 5.71285e-11 0)
(0.0190715 4.74093e-11 0)
(0.0190715 3.62801e-11 0)
(0.0190715 2.48361e-11 0)
(0.0190715 1.5161e-11 0)
(0.0190715 1.42388e-11 0)
(0.0190715 9.14161e-12 0)
(0.0190715 -1.56921e-10 0)
(0.0190715 -3.43506e-10 0)
(0.0195887 -2.21548e-10 0)
(0.0195887 -6.59605e-12 0)
(0.0195887 6.08745e-11 0)
(0.0195887 4.27301e-11 0)
(0.0195887 4.70232e-11 0)
(0.0195887 5.98788e-11 0)
(0.0195887 7.05457e-11 0)
(0.0195887 7.68503e-11 0)
(0.0195887 7.88638e-11 0)
(0.0195887 7.71107e-11 0)
(0.0195887 7.1727e-11 0)
(0.0195887 6.26803e-11 0)
(0.0195887 5.10459e-11 0)
(0.0195887 3.7659e-11 0)
(0.0195887 2.37863e-11 0)
(0.0195887 1.18601e-11 0)
(0.0195887 7.21639e-12 0)
(0.0195887 -9.09374e-12 0)
(0.0195887 -1.91886e-10 0)
(0.0195887 -3.50633e-10 0)
(0.0200256 -2.34859e-10 0)
(0.0200256 -2.97734e-11 0)
(0.0200256 6.72796e-11 0)
(0.0200256 5.88506e-11 0)
(0.0200256 6.49685e-11 0)
(0.0200256 7.79339e-11 0)
(0.0200256 8.77665e-11 0)
(0.0200256 9.3512e-11 0)
(0.0200256 9.46605e-11 0)
(0.0200256 9.15971e-11 0)
(0.0200256 8.46429e-11 0)
(0.0200256 7.34317e-11 0)
(0.0200256 5.91691e-11 0)
(0.0200256 4.24288e-11 0)
(0.0200256 2.4344e-11 0)
(0.0200256 7.07396e-12 0)
(0.0200256 -6.30384e-12 0)
(0.0200256 -3.92031e-11 0)
(0.0200256 -2.41236e-10 0)
(0.0200256 -3.76341e-10 0)
(0.0203995 -2.64391e-10 0)
(0.0203995 -6.34641e-11 0)
(0.0203995 6.74401e-11 0)
(0.0203995 7.41004e-11 0)
(0.0203995 8.62795e-11 0)
(0.0203995 1.01691e-10 0)
(0.0203995 1.11903e-10 0)
(0.0203995 1.17758e-10 0)
(0.0203995 1.18404e-10 0)
(0.0203995 1.14029e-10 0)
(0.0203995 1.05149e-10 0)
(0.0203995 9.13962e-11 0)
(0.0203995 7.34836e-11 0)
(0.0203995 5.19405e-11 0)
(0.0203995 2.75881e-11 0)
(0.0203995 2.05429e-12 0)
(0.0203995 -2.42738e-11 0)
(0.0203995 -7.67451e-11 0)
(0.0203995 -2.99777e-10 0)
(0.0203995 -4.14497e-10 0)
(0.0207216 -2.96974e-10 0)
(0.0207216 -1.00872e-10 0)
(0.0207216 6.33163e-11 0)
(0.0207216 8.91534e-11 0)
(0.0207216 1.0991e-10 0)
(0.0207216 1.28799e-10 0)
(0.0207216 1.40462e-10 0)
(0.0207216 1.46798e-10 0)
(0.0207216 1.47145e-10 0)
(0.0207216 1.41481e-10 0)
(0.0207216 1.30654e-10 0)
(0.0207216 1.1395e-10 0)
(0.0207216 9.16592e-11 0)
(0.0207216 6.42678e-11 0)
(0.0207216 3.20202e-11 0)
(0.0207216 -4.3548e-12 0)
(0.0207216 -4.71045e-11 0)
(0.0207216 -1.22472e-10 0)
(0.0207216 -3.68126e-10 0)
(0.0207216 -4.59808e-10 0)
(0.0209996 -3.33193e-10 0)
(0.0209996 -1.42844e-10 0)
(0.0209996 5.24098e-11 0)
(0.0209996 9.95734e-11 0)
(0.0209996 1.30896e-10 0)
(0.0209996 1.54689e-10 0)
(0.0209996 1.69401e-10 0)
(0.0209996 1.77438e-10 0)
(0.0209996 1.78505e-10 0)
(0.0209996 1.72613e-10 0)
(0.0209996 1.60366e-10 0)
(0.0209996 1.41107e-10 0)
(0.0209996 1.14756e-10 0)
(0.0209996 8.13986e-11 0)
(0.0209996 4.05738e-11 0)
(0.0209996 -8.08579e-12 0)
(0.0209996 -6.97235e-11 0)
(0.0209996 -1.70303e-10 0)
(0.0209996 -4.39842e-10 0)
(0.0209996 -5.09633e-10 0)
(0.0212394 -3.6942e-10 0)
(0.0212394 -1.85144e-10 0)
(0.0212394 3.90889e-11 0)
(0.0212394 1.08025e-10 0)
(0.0212394 1.49967e-10 0)
(0.0212394 1.79384e-10 0)
(0.0212394 1.97765e-10 0)
(0.0212394 2.0807e-10 0)
(0.0212394 2.10317e-10 0)
(0.0212394 2.04579e-10 0)
(0.0212394 1.91167e-10 0)
(0.0212394 1.69576e-10 0)
(0.0212394 1.39277e-10 0)
(0.0212394 9.99206e-11 0)
(0.0212394 5.02734e-11 0)
(0.0212394 -1.12841e-11 0)
(0.0212394 -9.25231e-11 0)
(0.0212394 -2.18562e-10 0)
(0.0212394 -5.11002e-10 0)
(0.0212394 -5.59592e-10 0)
(0.0214455 -4.13462e-10 0)
(0.0214455 -2.32972e-10 0)
(0.0214455 1.97033e-11 0)
(0.0214455 1.12459e-10 0)
(0.0214455 1.66605e-10 0)
(0.0214455 2.0308e-10 0)
(0.0214455 2.261e-10 0)
(0.0214455 2.39225e-10 0)
(0.0214455 2.42966e-10 0)
(0.0214455 2.37334e-10 0)
(0.0214455 2.22892e-10 0)
(0.0214455 1.98912e-10 0)
(0.0214455 1.64743e-10 0)
(0.0214455 1.19407e-10 0)
(0.0214455 6.11341e-11 0)
(0.0214455 -1.28132e-11 0)
(0.0214455 -1.12833e-10 0)
(0.0214455 -2.62261e-10 0)
(0.0214455 -5.73316e-10 0)
(0.0214455 -6.06819e-10 0)
(0.021622 -4.59868e-10 0)
(0.021622 -2.82689e-10 0)
(0.021622 -3.04582e-12 0)
(0.021622 1.13636e-10 0)
(0.021622 1.80799e-10 0)
(0.021622 2.25141e-10 0)
(0.021622 2.53173e-10 0)
(0.021622 2.69352e-10 0)
(0.021622 2.7451e-10 0)
(0.021622 2.69046e-10 0)
(0.021622 2.53636e-10 0)
(0.021622 2.27339e-10 0)
(0.021622 1.89532e-10 0)
(0.021622 1.38573e-10 0)
(0.021622 7.20825e-11 0)
(0.021622 -1.35034e-11 0)
(0.021622 -1.30769e-10 0)
(0.021622 -3.01652e-10 0)
(0.021622 -6.26203e-10 0)
(0.021622 -6.49163e-10 0)
(0.0217719 -5.02683e-10 0)
(0.0217719 -3.31354e-10 0)
(0.0217719 -2.89675e-11 0)
(0.0217719 1.09928e-10 0)
(0.0217719 1.89957e-10 0)
(0.0217719 2.42231e-10 0)
(0.0217719 2.75557e-10 0)
(0.0217719 2.9511e-10 0)
(0.0217719 3.02076e-10 0)
(0.0217719 2.9743e-10 0)
(0.0217719 2.81783e-10 0)
(0.0217719 2.54168e-10 0)
(0.0217719 2.13731e-10 0)
(0.0217719 1.58349e-10 0)
(0.0217719 8.48768e-11 0)
(0.0217719 -1.09866e-11 0)
(0.0217719 -1.43432e-10 0)
(0.0217719 -3.34434e-10 0)
(0.0217719 -6.69392e-10 0)
(0.0217719 -6.83852e-10 0)
(0.0218982 -5.43127e-10 0)
(0.0218982 -3.7946e-10 0)
(0.0218982 -5.75714e-11 0)
(0.0218982 1.02257e-10 0)
(0.0218982 1.94523e-10 0)
(0.0218982 2.54862e-10 0)
(0.0218982 2.93633e-10 0)
(0.0218982 3.16786e-10 0)
(0.0218982 3.25994e-10 0)
(0.0218982 3.22676e-10 0)
(0.0218982 3.07416e-10 0)
(0.0218982 2.79309e-10 0)
(0.0218982 2.37134e-10 0)
(0.0218982 1.78379e-10 0)
(0.0218982 9.91893e-11 0)
(0.0218982 -5.52611e-12 0)
(0.0218982 -1.50987e-10 0)
(0.0218982 -3.60498e-10 0)
(0.0218982 -7.02882e-10 0)
(0.0218982 -7.12189e-10 0)
(0.0220033 -5.79005e-10 0)
(0.0220033 -4.24056e-10 0)
(0.0220033 -8.63378e-11 0)
(0.0220033 9.23261e-11 0)
(0.0220033 1.9523e-10 0)
(0.0220033 2.6299e-10 0)
(0.0220033 3.06588e-10 0)
(0.0220033 3.33048e-10 0)
(0.0220033 3.44529e-10 0)
(0.0220033 3.42795e-10 0)
(0.0220033 3.28427e-10 0)
(0.0220033 3.00668e-10 0)
(0.0220033 2.5783e-10 0)
(0.0220033 1.97107e-10 0)
(0.0220033 1.13969e-10 0)
(0.0220033 2.49282e-12 0)
(0.0220033 -1.53105e-10 0)
(0.0220033 -3.78307e-10 0)
(0.0220033 -7.24947e-10 0)
(0.0220033 -7.32167e-10 0)
(0.0220891 -6.0849e-10 0)
(0.0220891 -4.62142e-10 0)
(0.0220891 -1.12172e-10 0)
(0.0220891 8.3013e-11 0)
(0.0220891 1.94e-10 0)
(0.0220891 2.67382e-10 0)
(0.0220891 3.14628e-10 0)
(0.0220891 3.43408e-10 0)
(0.0220891 3.56435e-10 0)
(0.0220891 3.55898e-10 0)
(0.0220891 3.42495e-10 0)
(0.0220891 3.15468e-10 0)
(0.0220891 2.72903e-10 0)
(0.0220891 2.11662e-10 0)
(0.0220891 1.26583e-10 0)
(0.0220891 1.1169e-11 0)
(0.0220891 -1.5078e-10 0)
(0.0220891 -3.87189e-10 0)
(0.0220891 -7.336e-10 0)
(0.0220891 -7.40798e-10 0)
(0.0221577 -6.30788e-10 0)
(0.0221577 -4.92711e-10 0)
(0.0221577 -1.34166e-10 0)
(0.0221577 7.42353e-11 0)
(0.0221577 1.90555e-10 0)
(0.0221577 2.67288e-10 0)
(0.0221577 3.1649e-10 0)
(0.0221577 3.46344e-10 0)
(0.0221577 3.60311e-10 0)
(0.0221577 3.60501e-10 0)
(0.0221577 3.48067e-10 0)
(0.0221577 3.2227e-10 0)
(0.0221577 2.81105e-10 0)
(0.0221577 2.21098e-10 0)
(0.0221577 1.36764e-10 0)
(0.0221577 2.09266e-11 0)
(0.0221577 -1.42723e-10 0)
(0.0221577 -3.83287e-10 0)
(0.0221577 -7.25158e-10 0)
(0.0221577 -7.36983e-10 0)
(0.0222107 -6.30066e-10 0)
(0.0222107 -5.05999e-10 0)
(0.0222107 -1.46971e-10 0)
(0.0222107 6.72716e-11 0)
(0.0222107 1.83535e-10 0)
(0.0222107 2.59269e-10 0)
(0.0222107 3.07387e-10 0)
(0.0222107 3.3642e-10 0)
(0.0222107 3.50361e-10 0)
(0.0222107 3.5132e-10 0)
(0.0222107 3.40526e-10 0)
(0.0222107 3.17362e-10 0)
(0.0222107 2.79745e-10 0)
(0.0222107 2.23757e-10 0)
(0.0222107 1.43664e-10 0)
(0.0222107 3.15804e-11 0)
(0.0222107 -1.29018e-10 0)
(0.0222107 -3.67088e-10 0)
(0.0222107 -7.0021e-10 0)
(0.0222107 -7.12996e-10 0)
(0.0222497 -6.19163e-10 0)
(0.0222497 -5.15211e-10 0)
(0.0222497 -1.60269e-10 0)
(0.0222497 5.59346e-11 0)
(0.0222497 1.71081e-10 0)
(0.0222497 2.46163e-10 0)
(0.0222497 2.93594e-10 0)
(0.0222497 3.22337e-10 0)
(0.0222497 3.36664e-10 0)
(0.0222497 3.38952e-10 0)
(0.0222497 3.29924e-10 0)
(0.0222497 3.09547e-10 0)
(0.0222497 2.75472e-10 0)
(0.0222497 2.23701e-10 0)
(0.0222497 1.48418e-10 0)
(0.0222497 4.14801e-11 0)
(0.0222497 -1.13646e-10 0)
(0.0222497 -3.43978e-10 0)
(0.0222497 -6.63746e-10 0)
(0.0222497 -6.76995e-10 0)
(0.0222759 -5.80943e-10 0)
(0.0222759 -5.1492e-10 0)
(0.0222759 -1.90693e-10 0)
(0.0222759 6.76763e-12 0)
(0.0222759 1.17876e-10 0)
(0.0222759 1.93825e-10 0)
(0.0222759 2.44387e-10 0)
(0.0222759 2.77818e-10 0)
(0.0222759 2.97888e-10 0)
(0.0222759 3.06754e-10 0)
(0.0222759 3.05063e-10 0)
(0.0222759 2.93004e-10 0)
(0.0222759 2.68681e-10 0)
(0.0222759 2.28514e-10 0)
(0.0222759 1.66789e-10 0)
(0.0222759 7.54607e-11 0)
(0.0222759 -6.2338e-11 0)
(0.0222759 -2.69013e-10 0)
(0.0222759 -5.72607e-10 0)
(0.0222759 -5.92331e-10 0)
(0.0222889 -6.62777e-10 0)
(0.0222889 -5.50805e-10 0)
(0.0222889 -2.00496e-10 0)
(0.0222889 2.08992e-11 0)
(0.0222889 1.47266e-10 0)
(0.0222889 2.30932e-10 0)
(0.0222889 2.8444e-10 0)
(0.0222889 3.17713e-10 0)
(0.0222889 3.3508e-10 0)
(0.0222889 3.40011e-10 0)
(0.0222889 3.33635e-10 0)
(0.0222889 3.16258e-10 0)
(0.0222889 2.86041e-10 0)
(0.0222889 2.39191e-10 0)
(0.0222889 1.69665e-10 0)
(0.0222889 6.83166e-11 0)
(0.0222889 -8.0269e-11 0)
(0.0222889 -3.03669e-10 0)
(0.0222889 -6.13186e-10 0)
(0.0222889 -6.78609e-10 0)
(0.0222885 -8.4041e-10 0)
(0.0222885 -6.86809e-10 0)
(0.0222885 -2.57906e-10 0)
(0.0222885 4.51213e-11 0)
(0.0222885 2.17486e-10 0)
(0.0222885 3.30965e-10 0)
(0.0222885 3.98979e-10 0)
(0.0222885 4.36733e-10 0)
(0.0222885 4.51667e-10 0)
(0.0222885 4.48562e-10 0)
(0.0222885 4.29694e-10 0)
(0.0222885 3.95605e-10 0)
(0.0222885 3.4354e-10 0)
(0.0222885 2.70493e-10 0)
(0.0222885 1.69827e-10 0)
(0.0222885 3.10217e-11 0)
(0.0222885 -1.61464e-10 0)
(0.0222885 -4.35386e-10 0)
(0.0222885 -7.56112e-10 0)
(0.0222885 -8.31503e-10 0)
(0.0222744 -8.3005e-10 0)
(0.0222744 -7.07787e-10 0)
(0.0222744 -2.83311e-10 0)
(0.0222744 2.41574e-11 0)
(0.0222744 2.10053e-10 0)
(0.0222744 3.34341e-10 0)
(0.0222744 4.1206e-10 0)
(0.0222744 4.57592e-10 0)
(0.0222744 4.78303e-10 0)
(0.0222744 4.78095e-10 0)
(0.0222744 4.58845e-10 0)
(0.0222744 4.20466e-10 0)
(0.0222744 3.61603e-10 0)
(0.0222744 2.78872e-10 0)
(0.0222744 1.65487e-10 0)
(0.0222744 1.2253e-11 0)
(0.0222744 -1.95286e-10 0)
(0.0222744 -4.76603e-10 0)
(0.0222744 -7.83898e-10 0)
(0.0222744 -8.14946e-10 0)
(0.0222466 -7.63408e-10 0)
(0.0222466 -6.82025e-10 0)
(0.0222466 -3.00092e-10 0)
(0.0222466 -2.06349e-11 0)
(0.0222466 1.53632e-10 0)
(0.0222466 2.73353e-10 0)
(0.0222466 3.51294e-10 0)
(0.0222466 3.9971e-10 0)
(0.0222466 4.24865e-10 0)
(0.0222466 4.30381e-10 0)
(0.0222466 4.1799e-10 0)
(0.0222466 3.8799e-10 0)
(0.0222466 3.39067e-10 0)
(0.0222466 2.68583e-10 0)
(0.0222466 1.71413e-10 0)
(0.0222466 3.91477e-11 0)
(0.0222466 -1.41536e-10 0)
(0.0222466 -3.88348e-10 0)
(0.0222466 -6.62875e-10 0)
(0.0222466 -6.98698e-10 0)
(0.0222051 -7.06759e-10 0)
(0.0222051 -6.50475e-10 0)
(0.0222051 -2.96586e-10 0)
(0.0222051 -3.65514e-11 0)
(0.0222051 1.26646e-10 0)
(0.0222051 2.37447e-10 0)
(0.0222051 3.09233e-10 0)
(0.0222051 3.54009e-10 0)
(0.0222051 3.77939e-10 0)
(0.0222051 3.84686e-10 0)
(0.0222051 3.75968e-10 0)
(0.0222051 3.51641e-10 0)
(0.0222051 3.1109e-10 0)
(0.0222051 2.51643e-10 0)
(0.0222051 1.68352e-10 0)
(0.0222051 5.29451e-11 0)
(0.0222051 -1.06112e-10 0)
(0.0222051 -3.2913e-10 0)
(0.0222051 -5.70321e-10 0)
(0.0222051 -6.0556e-10 0)
(0.0221502 -6.57015e-10 0)
(0.0221502 -6.19976e-10 0)
(0.0221502 -2.92603e-10 0)
(0.0221502 -4.87736e-11 0)
(0.0221502 1.06156e-10 0)
(0.0221502 2.10346e-10 0)
(0.0221502 2.77707e-10 0)
(0.0221502 3.20134e-10 0)
(0.0221502 3.43713e-10 0)
(0.0221502 3.51962e-10 0)
(0.0221502 3.46531e-10 0)
(0.0221502 3.27285e-10 0)
(0.0221502 2.93221e-10 0)
(0.0221502 2.41798e-10 0)
(0.0221502 1.68015e-10 0)
(0.0221502 6.3543e-11 0)
(0.0221502 -8.24319e-11 0)
(0.0221502 -2.89958e-10 0)
(0.0221502 -5.15042e-10 0)
(0.0221502 -5.44729e-10 0)
(0.0220822 -6.09238e-10 0)
(0.0220822 -5.91006e-10 0)
(0.0220822 -2.87881e-10 0)
(0.0220822 -5.89619e-11 0)
(0.0220822 8.93761e-11 0)
(0.0220822 1.88549e-10 0)
(0.0220822 2.52956e-10 0)
(0.0220822 2.93821e-10 0)
(0.0220822 3.17306e-10 0)
(0.0220822 3.26682e-10 0)
(0.0220822 3.23505e-10 0)
(0.0220822 3.07621e-10 0)
(0.0220822 2.77894e-10 0)
(0.0220822 2.31901e-10 0)
(0.0220822 1.64525e-10 0)
(0.0220822 6.77308e-11 0)
(0.0220822 -6.83102e-11 0)
(0.0220822 -2.62147e-10 0)
(0.0220822 -4.71413e-10 0)
(0.0220822 -4.92797e-10 0)
(0.0220018 -5.55353e-10 0)
(0.0220018 -5.54749e-10 0)
(0.0220018 -2.77242e-10 0)
(0.0220018 -6.42404e-11 0)
(0.0220018 7.66258e-11 0)
(0.0220018 1.70656e-10 0)
(0.0220018 2.32164e-10 0)
(0.0220018 2.71366e-10 0)
(0.0220018 2.94358e-10 0)
(0.0220018 3.04143e-10 0)
(0.0220018 3.02156e-10 0)
(0.0220018 2.88213e-10 0)
(0.0220018 2.61143e-10 0)
(0.0220018 2.18668e-10 0)
(0.0220018 1.55529e-10 0)
(0.0220018 6.44037e-11 0)
(0.0220018 -6.31259e-11 0)
(0.0220018 -2.43081e-10 0)
(0.0220018 -4.36912e-10 0)
(0.0220018 -4.44825e-10 0)
(0.0219099 -5.0189e-10 0)
(0.0219099 -5.16733e-10 0)
(0.0219099 -2.65358e-10 0)
(0.0219099 -6.85717e-11 0)
(0.0219099 6.39811e-11 0)
(0.0219099 1.53037e-10 0)
(0.0219099 2.11932e-10 0)
(0.0219099 2.49827e-10 0)
(0.0219099 2.72413e-10 0)
(0.0219099 2.82539e-10 0)
(0.0219099 2.81475e-10 0)
(0.0219099 2.69004e-10 0)
(0.0219099 2.44057e-10 0)
(0.0219099 2.04322e-10 0)
(0.0219099 1.44814e-10 0)
(0.0219099 5.85581e-11 0)
(0.0219099 -6.11456e-11 0)
(0.0219099 -2.27971e-10 0)
(0.0219099 -3.98522e-10 0)
(0.0219099 -3.95629e-10 0)
(0.0218076 -4.55423e-10 0)
(0.0218076 -4.83497e-10 0)
(0.0218076 -2.56803e-10 0)
(0.0218076 -7.49801e-11 0)
(0.0218076 5.01176e-11 0)
(0.0218076 1.35483e-10 0)
(0.0218076 1.92875e-10 0)
(0.0218076 2.30444e-10 0)
(0.0218076 2.53329e-10 0)
(0.0218076 2.64262e-10 0)
(0.0218076 2.64274e-10 0)
(0.0218076 2.53126e-10 0)
(0.0218076 2.29904e-10 0)
(0.0218076 1.92321e-10 0)
(0.0218076 1.357e-10 0)
(0.0218076 5.3769e-11 0)
(0.0218076 -5.88621e-11 0)
(0.0218076 -2.1313e-10 0)
(0.0218076 -3.62204e-10 0)
(0.0218076 -3.50859e-10 0)
(0.021696 -4.14055e-10 0)
(0.021696 -4.56747e-10 0)
(0.021696 -2.5422e-10 0)
(0.021696 -8.55603e-11 0)
(0.021696 3.35312e-11 0)
(0.021696 1.16663e-10 0)
(0.021696 1.73901e-10 0)
(0.021696 2.12372e-10 0)
(0.021696 2.36549e-10 0)
(0.021696 2.48996e-10 0)
(0.021696 2.50613e-10 0)
(0.021696 2.41147e-10 0)
(0.021696 2.19771e-10 0)
(0.021696 1.8416e-10 0)
(0.021696 1.30104e-10 0)
(0.021696 5.20354e-11 0)
(0.021696 -5.41636e-11 0)
(0.021696 -1.96762e-10 0)
(0.021696 -3.28347e-10 0)
(0.021696 -3.09866e-10 0)
(0.0215768 -3.73929e-10 0)
(0.0215768 -4.31536e-10 0)
(0.0215768 -2.53246e-10 0)
(0.0215768 -9.7478e-11 0)
(0.0215768 1.55603e-11 0)
(0.0215768 9.68596e-11 0)
(0.0215768 1.54316e-10 0)
(0.0215768 1.94123e-10 0)
(0.0215768 2.20043e-10 0)
(0.0215768 2.3438e-10 0)
(0.0215768 2.37871e-10 0)
(0.0215768 2.30275e-10 0)
(0.0215768 2.10812e-10 0)
(0.0215768 1.77218e-10 0)
(0.0215768 1.25893e-10 0)
(0.0215768 5.17166e-11 0)
(0.0215768 -4.82186e-11 0)
(0.0215768 -1.79022e-10 0)
(0.0215768 -2.95807e-10 0)
(0.0215768 -2.69957e-10 0)
(0.0214515 -3.31318e-10 0)
(0.0214515 -4.03293e-10 0)
(0.0214515 -2.47996e-10 0)
(0.0214515 -1.06698e-10 0)
(0.0214515 -2.75718e-13 0)
(0.0214515 7.81661e-11 0)
(0.0214515 1.3506e-10 0)
(0.0214515 1.75448e-10 0)
(0.0214515 2.02556e-10 0)
(0.0214515 2.18325e-10 0)
(0.0214515 2.23384e-10 0)
(0.0214515 2.17503e-10 0)
(0.0214515 1.99871e-10 0)
(0.0214515 1.68415e-10 0)
(0.0214515 1.20085e-10 0)
(0.0214515 5.03328e-11 0)
(0.0214515 -4.2826e-11 0)
(0.0214515 -1.61589e-10 0)
(0.0214515 -2.64589e-10 0)
(0.0214515 -2.30411e-10 0)
(0.0213215 -2.85288e-10 0)
(0.0213215 -3.67852e-10 0)
(0.0213215 -2.35365e-10 0)
(0.0213215 -1.09186e-10 0)
(0.0213215 -1.10866e-11 0)
(0.0213215 6.28971e-11 0)
(0.0213215 1.17666e-10 0)
(0.0213215 1.57265e-10 0)
(0.0213215 1.84351e-10 0)
(0.0213215 2.00546e-10 0)
(0.0213215 2.0631e-10 0)
(0.0213215 2.01473e-10 0)
(0.0213215 1.85172e-10 0)
(0.0213215 1.55685e-10 0)
(0.0213215 1.10288e-10 0)
(0.0213215 4.52654e-11 0)
(0.0213215 -4.06194e-11 0)
(0.0213215 -1.47665e-10 0)
(0.0213215 -2.37248e-10 0)
(0.0213215 -1.9275e-10 0)
(0.0211883 -2.3441e-10 0)
(0.0211883 -3.23872e-10 0)
(0.0211883 -2.12634e-10 0)
(0.0211883 -1.02899e-10 0)
(0.0211883 -1.54892e-11 0)
(0.0211883 5.14583e-11 0)
(0.0211883 1.0183e-10 0)
(0.0211883 1.38698e-10 0)
(0.0211883 1.64185e-10 0)
(0.0211883 1.79638e-10 0)
(0.0211883 1.85357e-10 0)
(0.0211883 1.81135e-10 0)
(0.0211883 1.66145e-10 0)
(0.0211883 1.38781e-10 0)
(0.0211883 9.65571e-11 0)
(0.0211883 3.65835e-11 0)
(0.0211883 -4.19347e-11 0)
(0.0211883 -1.37393e-10 0)
(0.0211883 -2.14578e-10 0)
(0.0211883 -1.57022e-10 0)
(0.0210528 -1.86152e-10 0)
(0.0210528 -2.75191e-10 0)
(0.0210528 -1.81459e-10 0)
(0.0210528 -8.84142e-11 0)
(0.0210528 -1.2865e-11 0)
(0.0210528 4.57527e-11 0)
(0.0210528 9.06552e-11 0)
(0.0210528 1.24028e-10 0)
(0.0210528 1.47468e-10 0)
(0.0210528 1.61898e-10 0)
(0.0210528 1.67348e-10 0)
(0.0210528 1.63432e-10 0)
(0.0210528 1.49181e-10 0)
(0.0210528 1.22938e-10 0)
(0.0210528 8.22802e-11 0)
(0.0210528 2.46911e-11 0)
(0.0210528 -5.04326e-11 0)
(0.0210528 -1.39722e-10 0)
(0.0210528 -2.08583e-10 0)
(0.0210528 -1.36946e-10 0)
(0.0209158 -6.88005e-11 0)
(0.0209158 -1.79626e-10 0)
(0.0209158 -1.2799e-10 0)
(0.0209158 -7.05098e-11 0)
(0.0209158 -1.9423e-11 0)
(0.0209158 2.31232e-11 0)
(0.0209158 5.7966e-11 0)
(0.0209158 8.51591e-11 0)
(0.0209158 1.04974e-10 0)
(0.0209158 1.17495e-10 0)
(0.0209158 1.22352e-10 0)
(0.0209158 1.19014e-10 0)
(0.0209158 1.06639e-10 0)
(0.0209158 8.40604e-11 0)
(0.0209158 4.93694e-11 0)
(0.0209158 1.33365e-12 0)
(0.0209158 -5.96884e-11 0)
(0.0209158 -1.26776e-10 0)
(0.0209158 -1.66203e-10 0)
(0.0209158 -5.24179e-11 0)
(0.0207771 -4.73047e-11 0)
(0.0207771 -2.07774e-10 0)
(0.0207771 -1.73802e-10 0)
(0.0207771 -1.20062e-10 0)
(0.0207771 -6.77859e-11 0)
(0.0207771 -2.18312e-11 0)
(0.0207771 1.72799e-11 0)
(0.0207771 4.92836e-11 0)
(0.0207771 7.43435e-11 0)
(0.0207771 9.2664e-11 0)
(0.0207771 1.04089e-10 0)
(0.0207771 1.08356e-10 0)
(0.0207771 1.0475e-10 0)
(0.0207771 9.25863e-11 0)
(0.0207771 7.00504e-11 0)
(0.0207771 3.66484e-11 0)
(0.0207771 -7.60012e-12 0)
(0.0207771 -5.54083e-11 0)
(0.0207771 -7.80873e-11 0)
(0.0207771 2.9436e-11 0)
(0.0206361 -2.03775e-11 0)
(0.0206361 -1.4018e-10 0)
(0.0206361 -1.16635e-10 0)
(0.0206361 -8.21794e-11 0)
(0.0206361 -4.53913e-11 0)
(0.0206361 -1.21306e-11 0)
(0.0206361 1.66124e-11 0)
(0.0206361 4.0248e-11 0)
(0.0206361 5.87569e-11 0)
(0.0206361 7.21662e-11 0)
(0.0206361 8.02666e-11 0)
(0.0206361 8.26441e-11 0)
(0.0206361 7.85847e-11 0)
(0.0206361 6.74704e-11 0)
(0.0206361 4.76652e-11 0)
(0.0206361 1.85227e-11 0)
(0.0206361 -2.04128e-11 0)
(0.0206361 -6.15207e-11 0)
(0.0206361 -8.08961e-11 0)
(0.0206361 1.7138e-11 0)
(0.0204913 1.74085e-11 0)
(0.0204913 -8.31523e-11 0)
(0.0204913 -8.04516e-11 0)
(0.0204913 -6.0844e-11 0)
(0.0204913 -3.61933e-11 0)
(0.0204913 -1.27147e-11 0)
(0.0204913 8.35336e-12 0)
(0.0204913 2.60872e-11 0)
(0.0204913 4.02778e-11 0)
(0.0204913 5.06764e-11 0)
(0.0204913 5.70576e-11 0)
(0.0204913 5.89905e-11 0)
(0.0204913 5.58264e-11 0)
(0.0204913 4.69656e-11 0)
(0.0204913 3.09741e-11 0)
(0.0204913 7.39154e-12 0)
(0.0204913 -2.43393e-11 0)
(0.0204913 -5.66366e-11 0)
(0.0204913 -6.97009e-11 0)
(0.0204913 2.37532e-11 0)
(0.0203405 4.85918e-11 0)
(0.0203405 -3.72173e-11 0)
(0.0203405 -4.68123e-11 0)
(0.0203405 -3.81064e-11 0)
(0.0203405 -2.41152e-11 0)
(0.0203405 -1.02718e-11 0)
(0.0203405 2.53846e-12 0)
(0.0203405 1.34616e-11 0)
(0.0203405 2.22836e-11 0)
(0.0203405 2.87087e-11 0)
(0.0203405 3.26488e-11 0)
(0.0203405 3.3667e-11 0)
(0.0203405 3.12583e-11 0)
(0.0203405 2.49561e-11 0)
(0.0203405 1.34711e-11 0)
(0.0203405 -3.31854e-12 0)
(0.0203405 -2.59194e-11 0)
(0.0203405 -4.79386e-11 0)
(0.0203405 -5.35568e-11 0)
(0.0203405 3.58611e-11 0)
(0.0201805 6.95418e-11 0)
(0.0201805 -4.06947e-12 0)
(0.0201805 -1.88791e-11 0)
(0.0201805 -1.90959e-11 0)
(0.0201805 -1.42203e-11 0)
(0.0201805 -9.06028e-12 0)
(0.0201805 -3.88868e-12 0)
(0.0201805 6.75497e-13 0)
(0.0201805 4.50003e-12 0)
(0.0201805 7.34858e-12 0)
(0.0201805 9.28897e-12 0)
(0.0201805 9.90954e-12 0)
(0.0201805 8.87532e-12 0)
(0.0201805 5.8662e-12 0)
(0.0201805 -3.37853e-13 0)
(0.0201805 -9.51276e-12 0)
(0.0201805 -2.23921e-11 0)
(0.0201805 -3.38122e-11 0)
(0.0201805 -3.21182e-11 0)
(0.0201805 5.12059e-11 0)
(0.0200073 7.31541e-11 0)
(0.0200073 1.30981e-11 0)
(0.0200073 -2.43837e-12 0)
(0.0200073 -7.15946e-12 0)
(0.0200073 -7.64602e-12 0)
(0.0200073 -7.86764e-12 0)
(0.0200073 -7.48903e-12 0)
(0.0200073 -6.90799e-12 0)
(0.0200073 -6.13972e-12 0)
(0.0200073 -5.34757e-12 0)
(0.0200073 -4.40651e-12 0)
(0.0200073 -3.6976e-12 0)
(0.0200073 -3.43146e-12 0)
(0.0200073 -3.87894e-12 0)
(0.0200073 -6.16465e-12 0)
(0.0200073 -1.01446e-11 0)
(0.0200073 -1.70129e-11 0)
(0.0200073 -2.18206e-11 0)
(0.0200073 -1.75563e-11 0)
(0.0200073 5.30462e-11 0)
(0.0198159 8.22925e-11 0)
(0.0198159 3.62559e-11 0)
(0.0198159 1.96779e-11 0)
(0.0198159 9.04236e-12 0)
(0.0198159 1.17078e-12 0)
(0.0198159 -6.16905e-12 0)
(0.0198159 -1.22203e-11 0)
(0.0198159 -1.6975e-11 0)
(0.0198159 -2.03596e-11 0)
(0.0198159 -2.25132e-11 0)
(0.0198159 -2.31037e-11 0)
(0.0198159 -2.24916e-11 0)
(0.0198159 -2.07355e-11 0)
(0.0198159 -1.80706e-11 0)
(0.0198159 -1.53706e-11 0)
(0.0198159 -1.26729e-11 0)
(0.0198159 -1.12725e-11 0)
(0.0198159 -7.65548e-12 0)
(0.0198159 7.38725e-13 0)
(0.0198159 6.01988e-11 0)
(0.0196002 9.18466e-11 0)
(0.0196002 6.01948e-11 0)
(0.0196002 4.30058e-11 0)
(0.0196002 2.70221e-11 0)
(0.0196002 1.18541e-11 0)
(0.0196002 -2.56491e-12 0)
(0.0196002 -1.52416e-11 0)
(0.0196002 -2.59008e-11 0)
(0.0196002 -3.40558e-11 0)
(0.0196002 -3.96907e-11 0)
(0.0196002 -4.23764e-11 0)
(0.0196002 -4.238e-11 0)
(0.0196002 -3.95581e-11 0)
(0.0196002 -3.40739e-11 0)
(0.0196002 -2.64474e-11 0)
(0.0196002 -1.70622e-11 0)
(0.0196002 -6.88513e-12 0)
(0.0196002 4.79457e-12 0)
(0.0196002 1.91522e-11 0)
(0.0196002 6.86659e-11 0)
(0.0193527 7.55886e-11 0)
(0.0193527 5.39747e-11 0)
(0.0193527 4.02174e-11 0)
(0.0193527 2.53689e-11 0)
(0.0193527 1.07519e-11 0)
(0.0193527 -3.4222e-12 0)
(0.0193527 -1.5848e-11 0)
(0.0193527 -2.60507e-11 0)
(0.0193527 -3.36052e-11 0)
(0.0193527 -3.84483e-11 0)
(0.0193527 -4.03249e-11 0)
(0.0193527 -3.94515e-11 0)
(0.0193527 -3.57276e-11 0)
(0.0193527 -2.93674e-11 0)
(0.0193527 -2.07578e-11 0)
(0.0193527 -1.05795e-11 0)
(0.0193527 -2.72863e-13 0)
(0.0193527 1.01777e-11 0)
(0.0193527 2.12094e-11 0)
(0.0193527 5.62085e-11 0)
(0.0190633 5.42101e-11 0)
(0.0190633 3.37733e-11 0)
(0.0190633 2.02893e-11 0)
(0.0190633 6.5293e-12 0)
(0.0190633 -6.0557e-12 0)
(0.0190633 -1.71763e-11 0)
(0.0190633 -2.59851e-11 0)
(0.0190633 -3.22641e-11 0)
(0.0190633 -3.56391e-11 0)
(0.0190633 -3.62436e-11 0)
(0.0190633 -3.40371e-11 0)
(0.0190633 -2.92686e-11 0)
(0.0190633 -2.20895e-11 0)
(0.0190633 -1.28041e-11 0)
(0.0190633 -1.97702e-12 0)
(0.0190633 9.57304e-12 0)
(0.0190633 1.98322e-11 0)
(0.0190633 2.8191e-11 0)
(0.0190633 3.25001e-11 0)
(0.0190633 4.90605e-11 0)
(0.0187173 4.84905e-11 0)
(0.0187173 1.75595e-11 0)
(0.0187173 -1.06757e-12 0)
(0.0187173 -1.68682e-11 0)
(0.0187173 -2.93747e-11 0)
(0.0187173 -3.87897e-11 0)
(0.0187173 -4.48245e-11 0)
(0.0187173 -4.75053e-11 0)
(0.0187173 -4.67194e-11 0)
(0.0187173 -4.27779e-11 0)
(0.0187173 -3.58536e-11 0)
(0.0187173 -2.62028e-11 0)
(0.0187173 -1.40212e-11 0)
(0.0187173 2.33449e-13 0)
(0.0187173 1.58845e-11 0)
(0.0187173 3.21835e-11 0)
(0.0187173 4.66238e-11 0)
(0.0187173 5.75581e-11 0)
(0.0187173 6.08698e-11 0)
(0.0187173 6.41644e-11 0)
(0.0182865 7.67087e-11 0)
(0.0182865 4.83348e-11 0)
(0.0182865 2.58599e-11 0)
(0.0182865 3.8688e-12 0)
(0.0182865 -1.52177e-11 0)
(0.0182865 -3.08493e-11 0)
(0.0182865 -4.27042e-11 0)
(0.0182865 -5.07682e-11 0)
(0.0182865 -5.4918e-11 0)
(0.0182865 -5.53913e-11 0)
(0.0182865 -5.24245e-11 0)
(0.0182865 -4.59945e-11 0)
(0.0182865 -3.61257e-11 0)
(0.0182865 -2.29589e-11 0)
(0.0182865 -6.71211e-12 0)
(0.0182865 1.22511e-11 0)
(0.0182865 3.30166e-11 0)
(0.0182865 5.42523e-11 0)
(0.0182865 7.25897e-11 0)
(0.0182865 8.77242e-11 0)
(0.0177152 5.45164e-11 0)
(0.0177152 3.15226e-11 0)
(0.0177152 1.2768e-11 0)
(0.0177152 -5.27864e-12 0)
(0.0177152 -2.01907e-11 0)
(0.0177152 -3.1702e-11 0)
(0.0177152 -3.98304e-11 0)
(0.0177152 -4.46406e-11 0)
(0.0177152 -4.60669e-11 0)
(0.0177152 -4.43501e-11 0)
(0.0177152 -3.98535e-11 0)
(0.0177152 -3.26021e-11 0)
(0.0177152 -2.27616e-11 0)
(0.0177152 -1.05284e-11 0)
(0.0177152 3.66692e-12 0)
(0.0177152 1.93584e-11 0)
(0.0177152 3.52438e-11 0)
(0.0177152 5.02404e-11 0)
(0.0177152 6.17942e-11 0)
(0.0177152 6.80754e-11 0)
(0.0169724 3.89346e-11 0)
(0.0169724 2.4026e-11 0)
(0.0169724 9.52227e-12 0)
(0.0169724 -5.52574e-12 0)
(0.0169724 -1.77826e-11 0)
(0.0169724 -2.686e-11 0)
(0.0169724 -3.31685e-11 0)
(0.0169724 -3.67513e-11 0)
(0.0169724 -3.75927e-11 0)
(0.0169724 -3.58616e-11 0)
(0.0169724 -3.18912e-11 0)
(0.0169724 -2.56828e-11 0)
(0.0169724 -1.73619e-11 0)
(0.0169724 -6.99473e-12 0)
(0.0169724 5.1139e-12 0)
(0.0169724 1.8583e-11 0)
(0.0169724 3.21106e-11 0)
(0.0169724 4.45816e-11 0)
(0.0169724 5.21322e-11 0)
(0.0169724 5.1205e-11 0)
(0.0161464 2.81047e-11 0)
(0.0161464 1.56335e-11 0)
(0.0161464 3.65113e-12 0)
(0.0161464 -8.16666e-12 0)
(0.0161464 -1.73182e-11 0)
(0.0161464 -2.3494e-11 0)
(0.0161464 -2.75779e-11 0)
(0.0161464 -2.96178e-11 0)
(0.0161464 -2.96729e-11 0)
(0.0161464 -2.78531e-11 0)
(0.0161464 -2.43445e-11 0)
(0.0161464 -1.92529e-11 0)
(0.0161464 -1.25694e-11 0)
(0.0161464 -4.29016e-12 0)
(0.0161464 5.4552e-12 0)
(0.0161464 1.65203e-11 0)
(0.0161464 2.80605e-11 0)
(0.0161464 3.90748e-11 0)
(0.0161464 4.52584e-11 0)
(0.0161464 4.15595e-11 0)
(0.0153143 2.00927e-11 0)
(0.0153143 1.10607e-11 0)
(0.0153143 2.73479e-12 0)
(0.0153143 -6.146e-12 0)
(0.0153143 -1.2412e-11 0)
(0.0153143 -1.66611e-11 0)
(0.0153143 -1.95815e-11 0)
(0.0153143 -2.11636e-11 0)
(0.0153143 -2.13888e-11 0)
(0.0153143 -2.03157e-11 0)
(0.0153143 -1.79519e-11 0)
(0.0153143 -1.45298e-11 0)
(0.0153143 -9.89284e-12 0)
(0.0153143 -3.96035e-12 0)
(0.0153143 3.118e-12 0)
(0.0153143 1.14218e-11 0)
(0.0153143 2.05603e-11 0)
(0.0153143 2.96533e-11 0)
(0.0153143 3.49806e-11 0)
(0.0153143 3.12361e-11 0)
(0.0145038 1.87453e-11 0)
(0.0145038 1.32902e-11 0)
(0.0145038 6.83594e-12 0)
(0.0145038 4.0502e-13 0)
(0.0145038 -5.09577e-12 0)
(0.0145038 -9.29744e-12 0)
(0.0145038 -1.25996e-11 0)
(0.0145038 -1.49642e-11 0)
(0.0145038 -1.62969e-11 0)
(0.0145038 -1.66135e-11 0)
(0.0145038 -1.57543e-11 0)
(0.0145038 -1.39287e-11 0)
(0.0145038 -1.11771e-11 0)
(0.0145038 -7.24722e-12 0)