/*--------------------------------*- C++ -*----------------------------------*\
  =========                 |
  \\      /  F ield         | OpenFOAM: The Open Source CFD Toolbox
   \\    /   O peration     | Website:  https://openfoam.org
    \\  /    A nd           | Version:  6
     \\/     M anipulation  |
\*---------------------------------------------------------------------------*/
FoamFile
{
    version     2.0;
    format      ascii;
    class       volSymmTensorField;
    location    "19.44";
    object      UPrime2Mean;
}
// * * * * * * * * * * * * * * * * * * * * * * * * * * * * * * * * * * * * * //

dimensions      [0 2 -2 0 0 0 0];

internalField   nonuniform List<symmTensor> 
1380
(
(0.604203 5.5501e-11 0 3.24111e-18 0 0)
(0.604203 8.25626e-11 0 3.52158e-18 0 0)
(0.604203 8.83493e-11 0 3.6349e-18 0 0)
(0.604203 6.45341e-11 0 3.44981e-18 0 0)
(0.604203 4.09167e-11 0 3.14251e-18 0 0)
(0.604203 2.29418e-11 0 2.79736e-18 0 0)
(0.604203 8.96765e-12 0 2.44954e-18 0 0)
(0.604203 -3.23761e-12 0 2.141e-18 0 0)
(0.604203 -1.28785e-11 0 1.89541e-18 0 0)
(0.604203 -2.08793e-11 0 1.7526e-18 0 0)
(0.604203 -2.74186e-11 0 1.71712e-18 0 0)
(0.604203 -3.2173e-11 0 1.79039e-18 0 0)
(0.604203 -3.54961e-11 0 1.97608e-18 0 0)
(0.604203 -3.83714e-11 0 2.23349e-18 0 0)
(0.604203 -4.0418e-11 0 2.53934e-18 0 0)
(0.604203 -4.05959e-11 0 2.8778e-18 0 0)
(0.604203 -3.91598e-11 0 3.22471e-18 0 0)
(0.604203 -3.47778e-11 0 3.57879e-18 0 0)
(0.604203 -2.47298e-11 0 4.04605e-18 0 0)
(0.604203 -1.39901e-11 0 4.19185e-18 0 0)
(0.922727 -1.02369e-10 0 2.74109e-17 0 0)
(0.922727 -1.76356e-10 0 2.42197e-17 0 0)
(0.922727 -6.57309e-11 0 2.11918e-17 0 0)
(0.922727 -6.95518e-11 0 1.85868e-17 0 0)
(0.922727 -7.60791e-11 0 1.5941e-17 0 0)
(0.922727 -7.73234e-11 0 1.34157e-17 0 0)
(0.922727 -7.52846e-11 0 1.11922e-17 0 0)
(0.922727 -7.23177e-11 0 9.40142e-18 0 0)
(0.922727 -6.75743e-11 0 8.08259e-18 0 0)
(0.922727 -5.94044e-11 0 7.23692e-18 0 0)
(0.922727 -4.70336e-11 0 6.86296e-18 0 0)
(0.922727 -3.04962e-11 0 6.97529e-18 0 0)
(0.922727 -9.03601e-12 0 7.60816e-18 0 0)
(0.922727 1.8959e-11 0 8.8207e-18 0 0)
(0.922727 5.49578e-11 0 1.07024e-17 0 0)
(0.922727 1.00176e-10 0 1.33679e-17 0 0)
(0.922727 1.54732e-10 0 1.69296e-17 0 0)
(0.922727 2.24685e-10 0 2.13164e-17 0 0)
(0.922727 2.37894e-10 0 2.59003e-17 0 0)
(0.922727 1.37457e-10 0 2.82288e-17 0 0)
(1.09449 -1.62071e-10 0 2.5639e-17 0 0)
(1.09449 -2.28795e-10 0 2.35523e-17 0 0)
(1.09449 -9.32985e-11 0 2.12117e-17 0 0)
(1.09449 -7.19921e-11 0 1.93067e-17 0 0)
(1.09449 -6.21683e-11 0 1.7155e-17 0 0)
(1.09449 -6.15941e-11 0 1.48633e-17 0 0)
(1.09449 -5.99595e-11 0 1.2652e-17 0 0)
(1.09449 -5.81986e-11 0 1.07271e-17 0 0)
(1.09449 -5.5005e-11 0 9.21999e-18 0 0)
(1.09449 -4.8754e-11 0 8.20356e-18 0 0)
(1.09449 -3.8175e-11 0 7.73069e-18 0 0)
(1.09449 -2.26082e-11 0 7.85433e-18 0 0)
(1.09449 -9.53402e-13 0 8.63601e-18 0 0)
(1.09449 2.83593e-11 0 1.01469e-17 0 0)
(1.09449 6.64182e-11 0 1.24501e-17 0 0)
(1.09449 1.14819e-10 0 1.55516e-17 0 0)
(1.09449 1.75507e-10 0 1.92941e-17 0 0)
(1.09449 2.48122e-10 0 2.32345e-17 0 0)
(1.09449 2.49054e-10 0 2.61856e-17 0 0)
(1.09449 8.11648e-11 0 2.63555e-17 0 0)
(1.22166 -2.14746e-10 0 2.40363e-17 0 0)
(1.22166 -2.77365e-10 0 2.29728e-17 0 0)
(1.22166 -1.58133e-10 0 2.08312e-17 0 0)
(1.22166 -1.23263e-10 0 1.91516e-17 0 0)
(1.22166 -1.05017e-10 0 1.72887e-17 0 0)
(1.22166 -9.77884e-11 0 1.52779e-17 0 0)
(1.22166 -8.92976e-11 0 1.32728e-17 0 0)
(1.22166 -7.93376e-11 0 1.14675e-17 0 0)
(1.22166 -6.63734e-11 0 1.00122e-17 0 0)
(1.22166 -4.98069e-11 0 9.02017e-18 0 0)
(1.22166 -2.83772e-11 0 8.57938e-18 0 0)
(1.22166 -1.43635e-12 0 8.76324e-18 0 0)
(1.22166 3.22504e-11 0 9.63737e-18 0 0)
(1.22166 7.34418e-11 0 1.12493e-17 0 0)
(1.22166 1.22483e-10 0 1.35981e-17 0 0)
(1.22166 1.80137e-10 0 1.65945e-17 0 0)
(1.22166 2.48631e-10 0 1.99799e-17 0 0)
(1.22166 3.20142e-10 0 2.31778e-17 0 0)
(1.22166 2.67539e-10 0 2.49336e-17 0 0)
(1.22166 4.61329e-11 0 2.40827e-17 0 0)
(1.32288 -1.94741e-10 0 2.03171e-17 0 0)
(1.32288 -2.32911e-10 0 1.98814e-17 0 0)
(1.32288 -1.51732e-10 0 1.79985e-17 0 0)
(1.32288 -1.14389e-10 0 1.65286e-17 0 0)
(1.32288 -1.01955e-10 0 1.49759e-17 0 0)
(1.32288 -9.79099e-11 0 1.33506e-17 0 0)
(1.32288 -9.34912e-11 0 1.17542e-17 0 0)
(1.32288 -8.57949e-11 0 1.03217e-17 0 0)
(1.32288 -7.42395e-11 0 9.17006e-18 0 0)
(1.32288 -5.77741e-11 0 8.39414e-18 0 0)
(1.32288 -3.56236e-11 0 8.07482e-18 0 0)
(1.32288 -7.06737e-12 0 8.27951e-18 0 0)
(1.32288 2.87765e-11 0 9.06098e-18 0 0)
(1.32288 7.24783e-11 0 1.04454e-17 0 0)
(1.32288 1.24543e-10 0 1.24153e-17 0 0)
(1.32288 1.85555e-10 0 1.48707e-17 0 0)
(1.32288 2.59844e-10 0 1.75934e-17 0 0)
(1.32288 3.31924e-10 0 2.00321e-17 0 0)
(1.32288 2.349e-10 0 2.10505e-17 0 0)
(1.32288 9.89404e-12 0 1.9835e-17 0 0)
(1.40685 -1.33106e-10 0 1.66319e-17 0 0)
(1.40685 -1.59763e-10 0 1.65438e-17 0 0)
(1.40685 -1.34423e-10 0 1.4849e-17 0 0)
(1.40685 -1.02749e-10 0 1.35183e-17 0 0)
(1.40685 -9.80179e-11 0 1.22031e-17 0 0)
(1.40685 -9.9543e-11 0 1.08921e-17 0 0)
(1.40685 -9.94197e-11 0 9.66328e-18 0 0)
(1.40685 -9.46486e-11 0 8.59986e-18 0 0)
(1.40685 -8.47128e-11 0 7.77306e-18 0 0)
(1.40685 -6.86368e-11 0 7.23842e-18 0 0)
(1.40685 -4.59911e-11 0 7.04698e-18 0 0)
(1.40685 -1.6292e-11 0 7.24529e-18 0 0)
(1.40685 2.09274e-11 0 7.87402e-18 0 0)
(1.40685 6.62997e-11 0 8.95763e-18 0 0)
(1.40685 1.19882e-10 0 1.04887e-17 0 0)
(1.40685 1.82607e-10 0 1.24033e-17 0 0)
(1.40685 2.59015e-10 0 1.45441e-17 0 0)
(1.40685 3.23568e-10 0 1.64061e-17 0 0)
(1.40685 1.85692e-10 0 1.70624e-17 0 0)
(1.40685 -2.10112e-11 0 1.58189e-17 0 0)
(1.4784 -4.58337e-11 0 1.35295e-17 0 0)
(1.4784 -7.37966e-11 0 1.36173e-17 0 0)
(1.4784 -1.06247e-10 0 1.19944e-17 0 0)
(1.4784 -8.36878e-11 0 1.07231e-17 0 0)
(1.4784 -8.48336e-11 0 9.58623e-18 0 0)
(1.4784 -9.18112e-11 0 8.52843e-18 0 0)
(1.4784 -9.67083e-11 0 7.6058e-18 0 0)
(1.4784 -9.63173e-11 0 6.85759e-18 0 0)
(1.4784 -8.95671e-11 0 6.30773e-18 0 0)
(1.4784 -7.60344e-11 0 5.97723e-18 0 0)
(1.4784 -5.53897e-11 0 5.88647e-18 0 0)
(1.4784 -2.72851e-11 0 6.06242e-18 0 0)
(1.4784 8.69115e-12 0 6.53714e-18 0 0)
(1.4784 5.27435e-11 0 7.33717e-18 0 0)
(1.4784 1.04903e-10 0 8.47506e-18 0 0)
(1.4784 1.65919e-10 0 9.92449e-18 0 0)
(1.4784 2.40356e-10 0 1.15926e-17 0 0)
(1.4784 2.90862e-10 0 1.30179e-17 0 0)
(1.4784 1.19594e-10 0 1.35567e-17 0 0)
(1.4784 -5.52789e-11 0 1.25209e-17 0 0)
(1.54054 5.59208e-11 0 1.10377e-17 0 0)
(1.54054 2.09892e-11 0 1.11668e-17 0 0)
(1.54054 -6.66709e-11 0 9.57198e-18 0 0)
(1.54054 -5.77527e-11 0 8.36118e-18 0 0)
(1.54054 -6.49436e-11 0 7.38578e-18 0 0)
(1.54054 -7.74008e-11 0 6.54168e-18 0 0)
(1.54054 -8.83508e-11 0 5.86496e-18 0 0)
(1.54054 -9.26983e-11 0 5.35673e-18 0 0)
(1.54054 -9.02639e-11 0 5.01211e-18 0 0)
(1.54054 -8.05014e-11 0 4.82683e-18 0 0)
(1.54054 -6.37298e-11 0 4.80049e-18 0 0)
(1.54054 -3.91606e-11 0 4.94636e-18 0 0)
(1.54054 -6.52005e-12 0 5.29113e-18 0 0)
(1.54054 3.38288e-11 0 5.86364e-18 0 0)
(1.54054 8.19288e-11 0 6.69012e-18 0 0)
(1.54054 1.38265e-10 0 7.77414e-18 0 0)
(1.54054 2.06897e-10 0 9.07039e-18 0 0)
(1.54054 2.40381e-10 0 1.01807e-17 0 0)
(1.54054 4.12161e-11 0 1.07346e-17 0 0)
(1.54054 -9.16729e-11 0 1.00086e-17 0 0)
(1.59524 1.53851e-10 0 9.13656e-18 0 0)
(1.59524 1.18204e-10 0 9.1888e-18 0 0)
(1.59524 -2.19551e-11 0 7.60882e-18 0 0)
(1.59524 -2.92586e-11 0 6.46444e-18 0 0)
(1.59524 -4.15268e-11 0 5.63021e-18 0 0)
(1.59524 -5.82734e-11 0 4.96504e-18 0 0)
(1.59524 -7.46139e-11 0 4.4813e-18 0 0)
(1.59524 -8.36199e-11 0 4.15082e-18 0 0)
(1.59524 -8.59405e-11 0 3.95007e-18 0 0)
(1.59524 -8.07241e-11 0 3.86055e-18 0 0)
(1.59524 -6.90657e-11 0 3.87025e-18 0 0)
(1.59524 -4.9409e-11 0 3.98303e-18 0 0)
(1.59524 -2.20625e-11 0 4.22356e-18 0 0)
(1.59524 1.25726e-11 0 4.62246e-18 0 0)
(1.59524 5.44765e-11 0 5.21247e-18 0 0)
(1.59524 1.03942e-10 0 6.01799e-18 0 0)
(1.59524 1.63921e-10 0 7.02478e-18 0 0)
(1.59524 1.80824e-10 0 7.9211e-18 0 0)
(1.59524 -4.26796e-11 0 8.56178e-18 0 0)
(1.59524 -1.28496e-10 0 8.17247e-18 0 0)
(1.6439 2.58131e-10 0 7.62539e-18 0 0)
(1.6439 2.22158e-10 0 7.56679e-18 0 0)
(1.6439 3.0368e-11 0 6.02233e-18 0 0)
(1.6439 3.51833e-12 0 4.96876e-18 0 0)
(1.6439 -1.53883e-11 0 4.26618e-18 0 0)
(1.6439 -3.72598e-11 0 3.75084e-18 0 0)
(1.6439 -5.85921e-11 0 3.41247e-18 0 0)
(1.6439 -7.23228e-11 0 3.20822e-18 0 0)
(1.6439 -7.93856e-11 0 3.10338e-18 0 0)
(1.6439 -7.93151e-11 0 3.07246e-18 0 0)
(1.6439 -7.28805e-11 0 3.09906e-18 0 0)
(1.6439 -5.88476e-11 0 3.18065e-18 0 0)
(1.6439 -3.78228e-11 0 3.34277e-18 0 0)
(1.6439 -1.01279e-11 0 3.61352e-18 0 0)
(1.6439 2.38991e-11 0 4.02935e-18 0 0)
(1.6439 6.42032e-11 0 4.62524e-18 0 0)
(1.6439 1.12186e-10 0 5.40596e-18 0 0)
(1.6439 1.09871e-10 0 6.15257e-18 0 0)
(1.6439 -1.36943e-10 0 6.9011e-18 0 0)
(1.6439 -1.65703e-10 0 6.8474e-18 0 0)
(1.68753 3.61557e-10 0 6.42239e-18 0 0)
(1.68753 3.22382e-10 0 6.25712e-18 0 0)
(1.68753 8.04705e-11 0 4.77127e-18 0 0)
(1.68753 3.24173e-11 0 3.82325e-18 0 0)
(1.68753 5.91354e-12 0 3.23745e-18 0 0)
(1.68753 -2.07805e-11 0 2.83687e-18 0 0)
(1.68753 -4.53786e-11 0 2.59752e-18 0 0)
(1.68753 -6.21645e-11 0 2.47392e-18 0 0)
(1.68753 -7.22317e-11 0 2.427e-18 0 0)
(1.68753 -7.58453e-11 0 2.42833e-18 0 0)
(1.68753 -7.32687e-11 0 2.46108e-18 0 0)
(1.68753 -6.38826e-11 0 2.52111e-18 0 0)
(1.68753 -4.85673e-11 0 2.62933e-18 0 0)
(1.68753 -2.76679e-11 0 2.8138e-18 0 0)
(1.68753 -2.04703e-12 0 3.11025e-18 0 0)
(1.68753 2.76161e-11 0 3.55691e-18 0 0)
(1.68753 6.08698e-11 0 4.1662e-18 0 0)
(1.68753 3.59648e-11 0 4.80593e-18 0 0)
(1.68753 -2.34297e-10 0 5.64877e-18 0 0)
(1.68753 -2.00828e-10 0 5.86971e-18 0 0)
(1.72692 4.62853e-10 0 5.47057e-18 0 0)
(1.72692 4.18368e-10 0 5.21372e-18 0 0)
(1.72692 1.30219e-10 0 3.81076e-18 0 0)
(1.72692 6.05296e-11 0 2.98836e-18 0 0)
(1.72692 2.50058e-11 0 2.51069e-18 0 0)
(1.72692 -6.64219e-12 0 2.19752e-18 0 0)
(1.72692 -3.40544e-11 0 2.02163e-18 0 0)
(1.72692 -5.31488e-11 0 1.94206e-18 0 0)
(1.72692 -6.55047e-11 0 1.92217e-18 0 0)
(1.72692 -7.1828e-11 0 1.93469e-18 0 0)
(1.72692 -7.23402e-11 0 1.96422e-18 0 0)
(1.72692 -6.70507e-11 0 2.00798e-18 0 0)
(1.72692 -5.69926e-11 0 2.08296e-18 0 0)
(1.72692 -4.2691e-11 0 2.21462e-18 0 0)
(1.72692 -2.55498e-11 0 2.43627e-18 0 0)
(1.72692 -7.2253e-12 0 2.78294e-18 0 0)
(1.72692 9.95602e-12 0 3.26928e-18 0 0)
(1.72692 -3.90361e-11 0 3.83724e-18 0 0)
(1.72692 -3.3131e-10 0 4.75299e-18 0 0)
(1.72692 -2.33744e-10 0 5.1692e-18 0 0)
(1.76264 5.39482e-10 0 4.77565e-18 0 0)
(1.76264 4.97645e-10 0 4.4161e-18 0 0)
(1.76264 1.72212e-10 0 3.0849e-18 0 0)
(1.76264 8.49556e-11 0 2.37006e-18 0 0)
(1.76264 4.16387e-11 0 1.9818e-18 0 0)
(1.76264 6.87257e-12 0 1.72938e-18 0 0)
(1.76264 -2.18684e-11 0 1.58868e-18 0 0)
(1.76264 -4.22938e-11 0 1.5276e-18 0 0)
(1.76264 -5.64465e-11 0 1.51386e-18 0 0)
(1.76264 -6.4924e-11 0 1.52404e-18 0 0)
(1.76264 -6.8218e-11 0 1.54595e-18 0 0)
(1.76264 -6.70405e-11 0 1.57784e-18 0 0)
(1.76264 -6.2068e-11 0 1.63488e-18 0 0)
(1.76264 -5.43475e-11 0 1.73967e-18 0 0)
(1.76264 -4.54415e-11 0 1.92135e-18 0 0)
(1.76264 -3.78487e-11 0 2.20941e-18 0 0)
(1.76264 -3.59638e-11 0 2.6149e-18 0 0)
(1.76264 -1.0674e-10 0 3.14337e-18 0 0)
(1.76264 -4.14429e-10 0 4.10793e-18 0 0)
(1.76264 -2.65022e-10 0 4.60861e-18 0 0)
(1.79518 5.97988e-10 0 4.29091e-18 0 0)
(1.79518 5.63726e-10 0 3.85406e-18 0 0)
(1.79518 2.0845e-10 0 2.59477e-18 0 0)
(1.79518 1.0661e-10 0 1.97546e-18 0 0)
(1.79518 5.61439e-11 0 1.66073e-18 0 0)
(1.79518 1.94632e-11 0 1.44912e-18 0 0)
(1.79518 -9.95853e-12 0 1.32404e-18 0 0)
(1.79518 -3.1137e-11 0 1.26284e-18 0 0)
(1.79518 -4.6484e-11 0 1.24039e-18 0 0)
(1.79518 -5.68249e-11 0 1.23878e-18 0 0)
(1.79518 -6.27142e-11 0 1.24986e-18 0 0)
(1.79518 -6.54564e-11 0 1.27362e-18 0 0)
(1.79518 -6.52285e-11 0 1.32383e-18 0 0)
(1.79518 -6.37073e-11 0 1.42001e-18 0 0)
(1.79518 -6.26736e-11 0 1.58578e-18 0 0)
(1.79518 -6.51087e-11 0 1.84361e-18 0 0)
(1.79518 -7.73971e-11 0 2.19915e-18 0 0)
(1.79518 -1.67888e-10 0 2.70711e-18 0 0)
(1.79518 -4.84302e-10 0 3.6923e-18 0 0)
(1.79518 -2.93679e-10 0 4.193e-18 0 0)
(1.82492 6.47115e-10 0 3.8932e-18 0 0)
(1.82492 6.19865e-10 0 3.4089e-18 0 0)
(1.82492 2.37456e-10 0 2.2306e-18 0 0)
(1.82492 1.2036e-10 0 1.70596e-18 0 0)
(1.82492 6.33535e-11 0 1.45448e-18 0 0)
(1.82492 2.52876e-11 0 1.2719e-18 0 0)
(1.82492 -3.84811e-12 0 1.14899e-18 0 0)
(1.82492 -2.45259e-11 0 1.07437e-18 0 0)
(1.82492 -3.96911e-11 0 1.03254e-18 0 0)
(1.82492 -5.0291e-11 0 1.01275e-18 0 0)
(1.82492 -5.72413e-11 0 1.01102e-18 0 0)
(1.82492 -6.19962e-11 0 1.02979e-18 0 0)
(1.82492 -6.48077e-11 0 1.08115e-18 0 0)
(1.82492 -6.76921e-11 0 1.18092e-18 0 0)
(1.82492 -7.29143e-11 0 1.34595e-18 0 0)
(1.82492 -8.40156e-11 0 1.5905e-18 0 0)
(1.82492 -1.09118e-10 0 1.91712e-18 0 0)
(1.82492 -2.18511e-10 0 2.4134e-18 0 0)
(1.82492 -5.41453e-10 0 3.40226e-18 0 0)
(1.82492 -3.17179e-10 0 3.85425e-18 0 0)
(1.85217 6.82178e-10 0 3.58825e-18 0 0)
(1.85217 6.6283e-10 0 3.08144e-18 0 0)
(1.85217 2.57714e-10 0 1.9866e-18 0 0)
(1.85217 1.27088e-10 0 1.55321e-18 0 0)
(1.85217 6.43566e-11 0 1.35675e-18 0 0)
(1.85217 2.59994e-11 0 1.19742e-18 0 0)
(1.85217 -1.68601e-12 0 1.07104e-18 0 0)
(1.85217 -2.04503e-11 0 9.77203e-19 0 0)
(1.85217 -3.40144e-11 0 9.11359e-19 0 0)
(1.85217 -4.34768e-11 0 8.70384e-19 0 0)
(1.85217 -5.00974e-11 0 8.54885e-19 0 0)
(1.85217 -5.54179e-11 0 8.69825e-19 0 0)
(1.85217 -6.00432e-11 0 9.25553e-19 0 0)
(1.85217 -6.6113e-11 0 1.03367e-18 0 0)
(1.85217 -7.64227e-11 0 1.20405e-18 0 0)
(1.85217 -9.53645e-11 0 1.44263e-18 0 0)
(1.85217 -1.32648e-10 0 1.75087e-18 0 0)
(1.85217 -2.5959e-10 0 2.24227e-18 0 0)
(1.85217 -5.87131e-10 0 3.22716e-18 0 0)
(1.85217 -3.37919e-10 0 3.60326e-18 0 0)
(1.87719 7.04039e-10 0 3.33152e-18 0 0)
(1.87719 6.93405e-10 0 2.81954e-18 0 0)
(1.87719 2.70084e-10 0 1.80359e-18 0 0)
(1.87719 1.27753e-10 0 1.45327e-18 0 0)
(1.87719 6.00752e-11 0 1.30381e-18 0 0)
(1.87719 2.21561e-11 0 1.16468e-18 0 0)
(1.87719 -3.35716e-12 0 1.03373e-18 0 0)
(1.87719 -1.93029e-11 0 9.20729e-19 0 0)
(1.87719 -3.01927e-11 0 8.31037e-19 0 0)
(1.87719 -3.73292e-11 0 7.69293e-19 0 0)
(1.87719 -4.23579e-11 0 7.40544e-19 0 0)
(1.87719 -4.6841e-11 0 7.51949e-19 0 0)
(1.87719 -5.19642e-11 0 8.12043e-19 0 0)
(1.87719 -5.98524e-11 0 9.28143e-19 0 0)
(1.87719 -7.38329e-11 0 1.10279e-18 0 0)
(1.87719 -9.93269e-11 0 1.33502e-18 0 0)
(1.87719 -1.47328e-10 0 1.62457e-18 0 0)
(1.87719 -2.90291e-10 0 2.10708e-18 0 0)
(1.87719 -6.20309e-10 0 3.08823e-18 0 0)
(1.87719 -3.55127e-10 0 3.39113e-18 0 0)
(1.90022 7.12018e-10 0 3.14014e-18 0 0)
(1.90022 7.12038e-10 0 2.64734e-18 0 0)
(1.90022 2.77195e-10 0 1.69926e-18 0 0)
(1.90022 1.26113e-10 0 1.41805e-18 0 0)
(1.90022 5.40472e-11 0 1.30689e-18 0 0)
(1.90022 1.69159e-11 0 1.18373e-18 0 0)
(1.90022 -5.97779e-12 0 1.04728e-18 0 0)
(1.90022 -1.89227e-11 0 9.15874e-19 0 0)
(1.90022 -2.70922e-11 0 8.03526e-19 0 0)
(1.90022 -3.17933e-11 0 7.22408e-19 0 0)
(1.90022 -3.49384e-11 0 6.81761e-19 0 0)
(1.90022 -3.83044e-11 0 6.90466e-19 0 0)
(1.90022 -4.33744e-11 0 7.55558e-19 0 0)
(1.90022 -5.23714e-11 0 8.80131e-19 0 0)
(1.90022 -6.90627e-11 0 1.06061e-18 0 0)
(1.90022 -9.9751e-11 0 1.28885e-18 0 0)
(1.90022 -1.56727e-10 0 1.56375e-18 0 0)
(1.90022 -3.11986e-10 0 2.02692e-18 0 0)
(1.90022 -6.40422e-10 0 2.99047e-18 0 0)
(1.90022 -3.67731e-10 0 3.23321e-18 0 0)
(1.92143 6.97171e-10 0 2.99354e-18 0 0)
(1.92143 7.10261e-10 0 2.54017e-18 0 0)
(1.92143 2.71204e-10 0 1.64338e-18 0 0)
(1.92143 1.16092e-10 0 1.40942e-18 0 0)
(1.92143 4.15463e-11 0 1.3291e-18 0 0)
(1.92143 6.95738e-12 0 1.21905e-18 0 0)
(1.92143 -1.16471e-11 0 1.07903e-18 0 0)
(1.92143 -2.00815e-11 0 9.32965e-19 0 0)
(1.92143 -2.3645e-11 0 8.02522e-19 0 0)
(1.92143 -2.45538e-11 0 7.04997e-19 0 0)
(1.92143 -2.44244e-11 0 6.54015e-19 0 0)
(1.92143 -2.52653e-11 0 6.59618e-19 0 0)
(1.92143 -2.88318e-11 0 7.27587e-19 0 0)
(1.92143 -3.75736e-11 0 8.57273e-19 0 0)
(1.92143 -5.57211e-11 0 1.04004e-18 0 0)
(1.92143 -9.03671e-11 0 1.26309e-18 0 0)
(1.92143 -1.54567e-10 0 1.52456e-18 0 0)
(1.92143 -3.18577e-10 0 1.96243e-18 0 0)
(1.92143 -6.46516e-10 0 2.91897e-18 0 0)
(1.92143 -3.81336e-10 0 3.09558e-18 0 0)
(1.94105 6.81553e-10 0 2.97489e-18 0 0)
(1.94105 7.05198e-10 0 2.55761e-18 0 0)
(1.94105 2.62438e-10 0 1.67594e-18 0 0)
(1.94105 1.02006e-10 0 1.46251e-18 0 0)
(1.94105 2.43747e-11 0 1.40295e-18 0 0)
(1.94105 -8.57296e-12 0 1.30197e-18 0 0)
(1.94105 -2.31158e-11 0 1.15923e-18 0 0)
(1.94105 -2.67617e-11 0 1.00179e-18 0 0)
(1.94105 -2.49874e-11 0 8.5688e-19 0 0)
(1.94105 -2.06421e-11 0 7.46477e-19 0 0)
(1.94105 -1.5663e-11 0 6.87178e-19 0 0)
(1.94105 -1.20863e-11 0 6.90487e-19 0 0)
(1.94105 -1.20315e-11 0 7.61163e-19 0 0)
(1.94105 -1.85591e-11 0 8.94909e-19 0 0)
(1.94105 -3.63489e-11 0 1.07981e-18 0 0)
(1.94105 -7.37326e-11 0 1.3014e-18 0 0)
(1.94105 -1.45264e-10 0 1.56022e-18 0 0)
(1.94105 -3.16494e-10 0 1.98642e-18 0 0)
(1.94105 -6.47914e-10 0 2.93557e-18 0 0)
(1.94105 -3.93502e-10 0 3.04393e-18 0 0)
(1.95965 6.63318e-10 0 3.049e-18 0 0)
(1.95965 6.90371e-10 0 2.63766e-18 0 0)
(1.95965 2.3478e-10 0 1.75106e-18 0 0)
(1.95965 6.41219e-11 0 1.55295e-18 0 0)
(1.95965 -1.75541e-11 0 1.51146e-18 0 0)
(1.95965 -4.76441e-11 0 1.41978e-18 0 0)
(1.95965 -5.57198e-11 0 1.27433e-18 0 0)
(1.95965 -5.11524e-11 0 1.10623e-18 0 0)
(1.95965 -3.98375e-11 0 9.48029e-19 0 0)
(1.95965 -2.51218e-11 0 8.26884e-19 0 0)
(1.95965 -9.9529e-12 0 7.61102e-19 0 0)
(1.95965 3.88566e-12 0 7.64126e-19 0 0)
(1.95965 1.34278e-11 0 8.38332e-19 0 0)
(1.95965 1.51857e-11 0 9.76361e-19 0 0)
(1.95965 3.63664e-12 0 1.16303e-18 0 0)
(1.95965 -3.1368e-11 0 1.38238e-18 0 0)
(1.95965 -1.0736e-10 0 1.63913e-18 0 0)
(1.95965 -2.86795e-10 0 2.05356e-18 0 0)
(1.95965 -6.25743e-10 0 3.0002e-18 0 0)
(1.95965 -3.90248e-10 0 3.06862e-18 0 0)
(1.9776 6.58109e-10 0 3.14756e-18 0 0)
(1.9776 6.92175e-10 0 2.7003e-18 0 0)
(1.9776 2.30738e-10 0 1.90564e-18 0 0)
(1.9776 4.08013e-11 0 1.75801e-18 0 0)
(1.9776 -4.84658e-11 0 1.71299e-18 0 0)
(1.9776 -7.85475e-11 0 1.59229e-18 0 0)
(1.9776 -8.19644e-11 0 1.40869e-18 0 0)
(1.9776 -6.99635e-11 0 1.20448e-18 0 0)
(1.9776 -5.03415e-11 0 1.02035e-18 0 0)
(1.9776 -2.72365e-11 0 8.86785e-19 0 0)
(1.9776 -3.97476e-12 0 8.22801e-19 0 0)
(1.9776 1.66296e-11 0 8.39232e-19 0 0)
(1.9776 3.17053e-11 0 9.36176e-19 0 0)
(1.9776 3.73328e-11 0 1.10254e-18 0 0)
(1.9776 2.78395e-11 0 1.31869e-18 0 0)
(1.9776 -7.83254e-12 0 1.56214e-18 0 0)
(1.9776 -8.90204e-11 0 1.82827e-18 0 0)
(1.9776 -2.82195e-10 0 2.21593e-18 0 0)
(1.9776 -6.10039e-10 0 3.15663e-18 0 0)
(1.9776 -3.86312e-10 0 3.22709e-18 0 0)
(1.99487 5.75807e-10 0 3.07686e-18 0 0)
(1.99487 5.98022e-10 0 2.50897e-18 0 0)
(1.99487 1.84397e-10 0 1.76605e-18 0 0)
(1.99487 2.04467e-11 0 1.63406e-18 0 0)
(1.99487 -5.13004e-11 0 1.60807e-18 0 0)
(1.99487 -7.04195e-11 0 1.50392e-18 0 0)
(1.99487 -6.76568e-11 0 1.33732e-18 0 0)
(1.99487 -5.30624e-11 0 1.15189e-18 0 0)
(1.99487 -3.40545e-11 0 9.8531e-19 0 0)
(1.99487 -1.36832e-11 0 8.66347e-19 0 0)
(1.99487 5.28749e-12 0 8.10034e-19 0 0)
(1.99487 2.15734e-11 0 8.23296e-19 0 0)
(1.99487 3.28269e-11 0 9.01859e-19 0 0)
(1.99487 3.58022e-11 0 1.03215e-18 0 0)
(1.99487 2.59237e-11 0 1.19952e-18 0 0)
(1.99487 -6.65657e-12 0 1.39212e-18 0 0)
(1.99487 -8.36722e-11 0 1.62711e-18 0 0)
(1.99487 -2.54816e-10 0 2.00628e-18 0 0)
(1.99487 -5.3732e-10 0 2.83959e-18 0 0)
(1.99487 -3.26905e-10 0 2.99076e-18 0 0)
(2.01139 4.89066e-10 0 3.42448e-18 0 0)
(2.01139 5.47378e-10 0 2.78093e-18 0 0)
(2.01139 1.58213e-10 0 1.77809e-18 0 0)
(2.01139 2.07888e-11 0 1.41079e-18 0 0)
(2.01139 -3.64571e-11 0 1.36756e-18 0 0)
(2.01139 -4.34421e-11 0 1.33128e-18 0 0)
(2.01139 -3.39193e-11 0 1.27495e-18 0 0)
(2.01139 -1.6258e-11 0 1.20092e-18 0 0)
(2.01139 2.90718e-12 0 1.12467e-18 0 0)
(2.01139 2.06448e-11 0 1.0592e-18 0 0)
(2.01139 3.45355e-11 0 1.01395e-18 0 0)
(2.01139 4.43667e-11 0 9.90704e-19 0 0)
(2.01139 4.96397e-11 0 9.82372e-19 0 0)
(2.01139 4.53092e-11 0 9.89797e-19 0 0)
(2.01139 2.70228e-11 0 1.01935e-18 0 0)
(2.01139 -1.44201e-11 0 1.10601e-18 0 0)
(2.01139 -9.99656e-11 0 1.34446e-18 0 0)
(2.01139 -2.61927e-10 0 1.93225e-18 0 0)
(2.01139 -5.50598e-10 0 2.98048e-18 0 0)
(2.01139 -3.83146e-10 0 3.40265e-18 0 0)
(2.02713 6.05508e-10 0 3.84052e-18 0 0)
(2.02713 6.82502e-10 0 3.24052e-18 0 0)
(2.02713 2.4148e-10 0 2.02266e-18 0 0)
(2.02713 5.11624e-11 0 1.45456e-18 0 0)
(2.02713 -4.13429e-11 0 1.32851e-18 0 0)
(2.02713 -7.49557e-11 0 1.27662e-18 0 0)
(2.02713 -8.20235e-11 0 1.24317e-18 0 0)
(2.02713 -7.38613e-11 0 1.20639e-18 0 0)
(2.02713 -5.75857e-11 0 1.16765e-18 0 0)
(2.02713 -3.73429e-11 0 1.12856e-18 0 0)
(2.02713 -1.7713e-11 0 1.09197e-18 0 0)
(2.02713 6.23237e-13 0 1.06184e-18 0 0)
(2.02713 1.50617e-11 0 1.03564e-18 0 0)
(2.02713 2.12763e-11 0 1.01477e-18 0 0)
(2.02713 1.4375e-11 0 1.01034e-18 0 0)
(2.02713 -1.64967e-11 0 1.06806e-18 0 0)
(2.02713 -9.31153e-11 0 1.30043e-18 0 0)
(2.02713 -2.54977e-10 0 1.91889e-18 0 0)
(2.02713 -5.37545e-10 0 3.16057e-18 0 0)
(2.02713 -3.4517e-10 0 3.41204e-18 0 0)
(2.04203 5.65554e-10 0 3.30357e-18 0 0)
(2.04203 6.68851e-10 0 2.79311e-18 0 0)
(2.04203 2.49312e-10 0 1.75572e-18 0 0)
(2.04203 5.36528e-11 0 1.31086e-18 0 0)
(2.04203 -4.36323e-11 0 1.21349e-18 0 0)
(2.04203 -7.99576e-11 0 1.15442e-18 0 0)
(2.04203 -8.70965e-11 0 1.09955e-18 0 0)
(2.04203 -7.77684e-11 0 1.04266e-18 0 0)
(2.04203 -5.92002e-11 0 9.91769e-19 0 0)
(2.04203 -3.59874e-11 0 9.52864e-19 0 0)
(2.04203 -1.22841e-11 0 9.28341e-19 0 0)
(2.04203 9.42718e-12 0 9.17832e-19 0 0)
(2.04203 2.63528e-11 0 9.15512e-19 0 0)
(2.04203 3.40223e-11 0 9.18501e-19 0 0)
(2.04203 2.72993e-11 0 9.30432e-19 0 0)
(2.04203 -6.24011e-12 0 9.82001e-19 0 0)
(2.04203 -9.01107e-11 0 1.16754e-18 0 0)
(2.04203 -2.63223e-10 0 1.68251e-18 0 0)
(2.04203 -5.28072e-10 0 2.90592e-18 0 0)
(2.04203 -3.50678e-10 0 3.0082e-18 0 0)
(2.05605 5.29438e-10 0 3.19411e-18 0 0)
(2.05605 6.61256e-10 0 2.73985e-18 0 0)
(2.05605 2.68055e-10 0 1.75689e-18 0 0)
(2.05605 7.38902e-11 0 1.30285e-18 0 0)
(2.05605 -2.37394e-11 0 1.17813e-18 0 0)
(2.05605 -6.39968e-11 0 1.10132e-18 0 0)
(2.05605 -7.57361e-11 0 1.03727e-18 0 0)
(2.05605 -7.11181e-11 0 9.78077e-19 0 0)
(2.05605 -5.68815e-11 0 9.29565e-19 0 0)
(2.05605 -3.7521e-11 0 8.97168e-19 0 0)
(2.05605 -1.69149e-11 0 8.83121e-19 0 0)
(2.05605 2.06249e-12 0 8.81544e-19 0 0)
(2.05605 1.69144e-11 0 8.88233e-19 0 0)
(2.05605 2.29385e-11 0 8.96616e-19 0 0)
(2.05605 1.52417e-11 0 9.09455e-19 0 0)
(2.05605 -1.85682e-11 0 9.56124e-19 0 0)
(2.05605 -1.00813e-10 0 1.13097e-18 0 0)
(2.05605 -2.69615e-10 0 1.62546e-18 0 0)
(2.05605 -5.11078e-10 0 2.86761e-18 0 0)
(2.05605 -3.43934e-10 0 2.82507e-18 0 0)
(2.06913 5.08994e-10 0 2.89776e-18 0 0)
(2.06913 6.55571e-10 0 2.47219e-18 0 0)
(2.06913 2.86796e-10 0 1.59388e-18 0 0)
(2.06913 9.34771e-11 0 1.18852e-18 0 0)
(2.06913 -5.50952e-12 0 1.07485e-18 0 0)
(2.06913 -4.99332e-11 0 1.00985e-18 0 0)
(2.06913 -6.58278e-11 0 9.54041e-19 0 0)
(2.06913 -6.53666e-11 0 8.99836e-19 0 0)
(2.06913 -5.50724e-11 0 8.53549e-19 0 0)
(2.06913 -3.93271e-11 0 8.21586e-19 0 0)
(2.06913 -2.19103e-11 0 8.07815e-19 0 0)
(2.06913 -5.66483e-12 0 8.06179e-19 0 0)
(2.06913 6.68873e-12 0 8.11224e-19 0 0)
(2.06913 1.07951e-11 0 8.17772e-19 0 0)
(2.06913 1.93074e-12 0 8.28516e-19 0 0)
(2.06913 -3.19708e-11 0 8.73211e-19 0 0)
(2.06913 -1.1256e-10 0 1.04454e-18 0 0)
(2.06913 -2.7325e-10 0 1.52791e-18 0 0)
(2.06913 -5.02163e-10 0 2.70141e-18 0 0)
(2.06913 -3.35678e-10 0 2.62059e-18 0 0)
(2.08122 4.90302e-10 0 2.58655e-18 0 0)
(2.08122 6.48643e-10 0 2.18642e-18 0 0)
(2.08122 3.04821e-10 0 1.41445e-18 0 0)
(2.08122 1.13102e-10 0 1.06986e-18 0 0)
(2.08122 1.28386e-11 0 9.72698e-19 0 0)
(2.08122 -3.58785e-11 0 9.23623e-19 0 0)
(2.08122 -5.61109e-11 0 8.79549e-19 0 0)
(2.08122 -5.98408e-11 0 8.33066e-19 0 0)
(2.08122 -5.35465e-11 0 7.90744e-19 0 0)
(2.08122 -4.1501e-11 0 7.59414e-19 0 0)
(2.08122 -2.74135e-11 0 7.43222e-19 0 0)
(2.08122 -1.38868e-11 0 7.37469e-19 0 0)
(2.08122 -3.99209e-12 0 7.36956e-19 0 0)
(2.08122 -1.67858e-12 0 7.38222e-19 0 0)
(2.08122 -1.1923e-11 0 7.45664e-19 0 0)
(2.08122 -4.60427e-11 0 7.90902e-19 0 0)
(2.08122 -1.24545e-10 0 9.65103e-19 0 0)
(2.08122 -2.76309e-10 0 1.43999e-18 0 0)
(2.08122 -4.9147e-10 0 2.55518e-18 0 0)
(2.08122 -3.25534e-10 0 2.44166e-18 0 0)
(2.09228 4.74109e-10 0 2.17201e-18 0 0)
(2.09228 6.44252e-10 0 1.81496e-18 0 0)
(2.09228 3.27543e-10 0 1.17281e-18 0 0)
(2.09228 1.39179e-10 0 9.08201e-19 0 0)
(2.09228 3.75826e-11 0 8.40283e-19 0 0)
(2.09228 -1.5699e-11 0 8.14252e-19 0 0)
(2.09228 -4.10128e-11 0 7.86478e-19 0 0)
(2.09228 -4.97381e-11 0 7.50557e-19 0 0)
(2.09228 -4.83815e-11 0 7.13666e-19 0 0)
(2.09228 -4.11073e-11 0 6.83195e-19 0 0)
(2.09228 -3.14764e-11 0 6.63005e-19 0 0)
(2.09228 -2.20254e-11 0 6.50442e-19 0 0)
(2.09228 -1.59944e-11 0 6.41524e-19 0 0)
(2.09228 -1.69819e-11 0 6.3479e-19 0 0)
(2.09228 -3.04758e-11 0 6.3636e-19 0 0)
(2.09228 -6.6491e-11 0 6.81183e-19 0 0)
(2.09228 -1.44955e-10 0 8.5707e-19 0 0)
(2.09228 -2.87674e-10 0 1.32111e-18 0 0)
(2.09228 -4.89336e-10 0 2.33446e-18 0 0)
(2.09228 -3.2143e-10 0 2.23808e-18 0 0)
(2.10227 4.51733e-10 0 1.75994e-18 0 0)
(2.10227 6.3405e-10 0 1.44552e-18 0 0)
(2.10227 3.47892e-10 0 9.32066e-19 0 0)
(2.10227 1.66359e-10 0 7.46576e-19 0 0)
(2.10227 6.46096e-11 0 7.11336e-19 0 0)
(2.10227 7.88592e-12 0 7.07317e-19 0 0)
(2.10227 -2.20444e-11 0 6.95255e-19 0 0)
(2.10227 -3.58405e-11 0 6.70364e-19 0 0)
(2.10227 -3.97744e-11 0 6.39634e-19 0 0)
(2.10227 -3.79278e-11 0 6.10678e-19 0 0)
(2.10227 -3.3561e-11 0 5.86931e-19 0 0)
(2.10227 -2.92282e-11 0 5.67013e-19 0 0)
(2.10227 -2.81528e-11 0 5.48778e-19 0 0)
(2.10227 -3.37181e-11 0 5.3281e-19 0 0)
(2.10227 -5.15935e-11 0 5.28417e-19 0 0)
(2.10227 -9.06163e-11 0 5.71954e-19 0 0)
(2.10227 -1.69321e-10 0 7.48651e-19 0 0)
(2.10227 -3.03847e-10 0 1.19496e-18 0 0)
(2.10227 -4.82857e-10 0 2.14804e-18 0 0)
(2.10227 -3.13937e-10 0 2.04896e-18 0 0)
(2.11112 4.14746e-10 0 1.46373e-18 0 0)
(2.11112 6.1108e-10 0 1.1777e-18 0 0)
(2.11112 3.60314e-10 0 7.59756e-19 0 0)
(2.11112 1.9128e-10 0 6.13631e-19 0 0)
(2.11112 9.2816e-11 0 5.90164e-19 0 0)
(2.11112 3.54317e-11 0 5.95827e-19 0 0)
(2.11112 2.6698e-12 0 5.95601e-19 0 0)
(2.11112 -1.52482e-11 0 5.83544e-19 0 0)
(2.11112 -2.40616e-11 0 5.63793e-19 0 0)
(2.11112 -2.76256e-11 0 5.41791e-19 0 0)
(2.11112 -2.89999e-11 0 5.19672e-19 0 0)
(2.11112 -3.0676e-11 0 4.96397e-19 0 0)
(2.11112 -3.57061e-11 0 4.7138e-19 0 0)
(2.11112 -4.73609e-11 0 4.46821e-19 0 0)
(2.11112 -7.10768e-11 0 4.35033e-19 0 0)
(2.11112 -1.14713e-10 0 4.7376e-19 0 0)
(2.11112 -1.94891e-10 0 6.43854e-19 0 0)
(2.11112 -3.22991e-10 0 1.05952e-18 0 0)
(2.11112 -4.81481e-10 0 1.91481e-18 0 0)
(2.11112 -3.13628e-10 0 1.8244e-18 0 0)
(2.11881 3.69621e-10 0 1.23758e-18 0 0)
(2.11881 5.75207e-10 0 9.85534e-19 0 0)
(2.11881 3.62075e-10 0 6.4424e-19 0 0)
(2.11881 2.10547e-10 0 5.13394e-19 0 0)
(2.11881 1.19314e-10 0 4.87667e-19 0 0)
(2.11881 6.41056e-11 0 4.93573e-19 0 0)
(2.11881 3.054e-11 0 4.99621e-19 0 0)
(2.11881 9.86215e-12 0 4.97812e-19 0 0)
(2.11881 -2.96814e-12 0 4.88345e-19 0 0)
(2.11881 -1.1546e-11 0 4.73947e-19 0 0)
(2.11881 -1.86008e-11 0 4.55249e-19 0 0)
(2.11881 -2.64679e-11 0 4.31384e-19 0 0)
(2.11881 -3.8041e-11 0 4.02856e-19 0 0)
(2.11881 -5.6601e-11 0 3.73437e-19 0 0)
(2.11881 -8.70905e-11 0 3.57781e-19 0 0)
(2.11881 -1.3624e-10 0 3.93782e-19 0 0)
(2.11881 -2.19165e-10 0 5.55475e-19 0 0)
(2.11881 -3.42133e-10 0 9.35544e-19 0 0)
(2.11881 -4.8381e-10 0 1.66272e-18 0 0)
(2.11881 -3.1848e-10 0 1.57579e-18 0 0)
(2.1253 3.20035e-10 0 1.08343e-18 0 0)
(2.1253 5.34176e-10 0 8.58353e-19 0 0)
(2.1253 3.57806e-10 0 5.68849e-19 0 0)
(2.1253 2.26536e-10 0 4.38196e-19 0 0)
(2.1253 1.44271e-10 0 4.02916e-19 0 0)
(2.1253 9.27615e-11 0 4.03706e-19 0 0)
(2.1253 5.93865e-11 0 4.13077e-19 0 0)
(2.1253 3.67129e-11 0 4.19619e-19 0 0)
(2.1253 2.04136e-11 0 4.19689e-19 0 0)
(2.1253 7.17046e-12 0 4.13011e-19 0 0)
(2.1253 -5.44932e-12 0 3.98783e-19 0 0)
(2.1253 -1.95728e-11 0 3.76139e-19 0 0)
(2.1253 -3.79115e-11 0 3.46366e-19 0 0)
(2.1253 -6.35859e-11 0 3.14756e-19 0 0)
(2.1253 -1.01133e-10 0 2.97605e-19 0 0)
(2.1253 -1.56013e-10 0 3.3164e-19 0 0)
(2.1253 -2.41566e-10 0 4.83295e-19 0 0)
(2.1253 -3.60021e-10 0 8.25819e-19 0 0)
(2.1253 -4.87689e-10 0 1.41322e-18 0 0)
(2.1253 -3.26509e-10 0 1.33086e-18 0 0)
(2.13054 2.7509e-10 0 9.59239e-19 0 0)
(2.13054 4.94719e-10 0 7.6044e-19 0 0)
(2.13054 3.52913e-10 0 5.09261e-19 0 0)
(2.13054 2.41105e-10 0 3.80201e-19 0 0)
(2.13054 1.68237e-10 0 3.3586e-19 0 0)
(2.13054 1.20379e-10 0 3.32365e-19 0 0)
(2.13054 8.70902e-11 0 3.44285e-19 0 0)
(2.13054 6.24534e-11 0 3.5793e-19 0 0)
(2.13054 4.25165e-11 0 3.66336e-19 0 0)
(2.13054 2.45309e-11 0 3.66481e-19 0 0)
(2.13054 6.34487e-12 0 3.56364e-19 0 0)
(2.13054 -1.39776e-11 0 3.35185e-19 0 0)
(2.13054 -3.8987e-11 0 3.0487e-19 0 0)
(2.13054 -7.14669e-11 0 2.7224e-19 0 0)
(2.13054 -1.1552e-10 0 2.54762e-19 0 0)
(2.13054 -1.75385e-10 0 2.8767e-19 0 0)
(2.13054 -2.62502e-10 0 4.30153e-19 0 0)
(2.13054 -3.76232e-10 0 7.39464e-19 0 0)
(2.13054 -4.90093e-10 0 1.21923e-18 0 0)
(2.13054 -3.31063e-10 0 1.13752e-18 0 0)
(2.13452 2.36477e-10 0 8.97821e-19 0 0)
(2.13452 4.57786e-10 0 7.14116e-19 0 0)
(2.13452 3.4769e-10 0 4.90216e-19 0 0)
(2.13452 2.54674e-10 0 3.59843e-19 0 0)
(2.13452 1.90943e-10 0 3.07513e-19 0 0)
(2.13452 1.46323e-10 0 2.98708e-19 0 0)
(2.13452 1.1285e-10 0 3.10594e-19 0 0)
(2.13452 8.59141e-11 0 3.28116e-19 0 0)
(2.13452 6.22817e-11 0 3.4207e-19 0 0)
(2.13452 3.96212e-11 0 3.4737e-19 0 0)
(2.13452 1.60084e-11 0 3.4127e-19 0 0)
(2.13452 -1.02532e-11 0 3.23006e-19 0 0)
(2.13452 -4.14803e-11 0 2.95011e-19 0 0)
(2.13452 -8.00133e-11 0 2.65172e-19 0 0)
(2.13452 -1.29606e-10 0 2.51316e-19 0 0)
(2.13452 -1.93838e-10 0 2.86193e-19 0 0)
(2.13452 -2.82134e-10 0 4.2112e-19 0 0)
(2.13452 -3.89927e-10 0 7.00291e-19 0 0)
(2.13452 -4.90823e-10 0 1.08816e-18 0 0)
(2.13452 -3.3268e-10 0 1.01619e-18 0 0)
(2.13722 2.01711e-10 0 1.02595e-18 0 0)
(2.13722 4.21818e-10 0 8.20158e-19 0 0)
(2.13722 3.40306e-10 0 5.98693e-19 0 0)
(2.13722 2.65385e-10 0 4.58984e-19 0 0)
(2.13722 2.10841e-10 0 3.92991e-19 0 0)