/*--------------------------------*- C++ -*----------------------------------*\
  =========                 |
  \\      /  F ield         | OpenFOAM: The Open Source CFD Toolbox
   \\    /   O peration     | Website:  https://openfoam.org
    \\  /    A nd           | Version:  6
     \\/     M anipulation  |
\*---------------------------------------------------------------------------*/
FoamFile
{
    version     2.0;
    format      ascii;
    class       volVectorField;
    location    "19.44";
    object      wallShearStress;
}
// * * * * * * * * * * * * * * * * * * * * * * * * * * * * * * * * * * * * * //

dimensions      [0 2 -2 0 0 0 0];

internalField   uniform (0 0 0);

boundaryField
{
    top
    {
        type            symmetryPlane;
    }
    bottom
    {
        type            calculated;
        value           nonuniform List<vector> 
20
(
(-0.0103006 -8.78413e-12 0)
(-0.0103006 -7.29065e-12 0)
(-0.0103006 -7.13169e-12 0)
(-0.0103006 -7.14802e-12 0)
(-0.0103006 -5.76609e-12 0)
(-0.0103006 -4.45678e-12 0)
(-0.0103006 -3.13887e-12 0)
(-0.0103006 -1.76733e-12 0)
(-0.0103006 -3.60693e-13 0)
(-0.0103006 1.00907e-12 0)
(-0.0103006 2.28848e-12 0)
(-0.0103006 3.47229e-12 0)
(-0.0103006 4.4974e-12 0)
(-0.0103006 5.35983e-12 0)
(-0.0103006 6.10527e-12 0)
(-0.0103006 6.33608e-12 0)
(-0.0103006 6.18221e-12 0)
(-0.0103006 5.42729e-12 0)
(-0.0103006 4.84378e-12 0)
(-0.0103006 3.38815e-13 0)
)
;
    }
    inlet
    {
        type            cyclic;
    }
    outlet
    {
        type            cyclic;
    }
    frontAndBack
    {
        type            empty;
    }
}


// ************************************************************************* //
