/*--------------------------------*- C++ -*----------------------------------*\
  =========                 |
  \\      /  F ield         | OpenFOAM: The Open Source CFD Toolbox
   \\    /   O peration     | Website:  https://openfoam.org
    \\  /    A nd           | Version:  6
     \\/     M anipulation  |
\*---------------------------------------------------------------------------*/
FoamFile
{
    version     2.0;
    format      ascii;
    class       volVectorField;
    location    "19.44";
    object      ddt0(U);
}
// * * * * * * * * * * * * * * * * * * * * * * * * * * * * * * * * * * * * * //

dimensions      [0 1 -2 0 0 0 0];

internalField   nonuniform List<vector> 
3240
(
(-0.00738152 -1.63819e-10 -1.5069e-29)
(-0.00738162 1.74505e-10 4.83762e-29)
(-0.00738165 1.43988e-11 -1.22302e-29)
(-0.00738164 -7.94035e-11 7.97323e-30)
(-0.00738156 -2.23163e-10 4.86766e-30)
(-0.00738145 -2.30208e-10 -1.13962e-29)
(-0.00738135 -1.6645e-10 -3.84625e-29)
(-0.00738132 3.69936e-11 -5.05714e-29)
(-0.00738141 3.54315e-10 -1.66515e-33)
(-0.00738166 6.47461e-10 -3.17616e-29)
(-0.00738199 8.10061e-10 -1.11428e-28)
(-0.00738234 6.61121e-10 3.43268e-28)
(-0.0073825 5.25232e-11 -7.06455e-32)
(-0.00738232 -5.91978e-10 -1.92071e-32)
(-0.00738194 -9.53848e-10 -1.92899e-28)
(-0.00738158 -6.60223e-10 1.21586e-28)
(-0.00738134 -4.57841e-10 1.11203e-28)
(-0.00738123 -1.14007e-10 6.76847e-29)
(-0.00738127 1.608e-10 -5.36845e-46)
(-0.00738136 2.93635e-10 -5.55204e-29)
(-0.0140403 8.44787e-10 -3.67687e-28)
(-0.0140405 1.0016e-09 8.77251e-29)
(-0.0140405 1.66445e-10 -4.958e-29)
(-0.0140405 -7.29763e-10 7.75743e-29)
(-0.0140404 -1.38161e-09 -3.84241e-32)
(-0.0140402 -1.53121e-09 2.6314e-32)
(-0.01404 -1.00674e-09 2.1583e-42)
(-0.0140399 3.69799e-10 2.18172e-28)
(-0.01404 2.51945e-09 1.23078e-28)
(-0.0140405 4.29132e-09 -1.0393e-28)
(-0.0140411 5.17925e-09 -7.65163e-40)
(-0.0140418 4.04673e-09 1.356e-27)
(-0.0140421 1.34424e-10 -4.62628e-28)
(-0.0140419 -4.07148e-09 2.14386e-32)
(-0.0140412 -5.65076e-09 -4.67246e-32)
(-0.0140405 -4.74027e-09 -3.5849e-40)
(-0.01404 -2.82597e-09 4.31736e-28)
(-0.0140398 -6.45557e-10 2.65902e-28)
(-0.0140398 9.882e-10 -4.60042e-32)
(-0.01404 1.90713e-09 -1.00286e-28)
(-0.0181534 3.40296e-09 -3.26594e-28)
(-0.0181537 2.18109e-09 6.64103e-33)
(-0.0181538 4.0699e-10 9.83944e-29)
(-0.0181537 -1.35112e-09 6.4899e-38)
(-0.0181536 -2.76692e-09 -7.89074e-29)
(-0.0181534 -3.18692e-09 -4.9309e-30)
(-0.0181532 -2.35857e-09 1.3493e-33)
(-0.018153 3.52671e-10 2.64101e-28)
(-0.0181531 4.89046e-09 -1.45472e-33)
(-0.0181536 9.01549e-09 -1.69317e-32)
(-0.0181543 1.14293e-08 1.17359e-27)
(-0.0181553 9.41976e-09 6.73029e-32)
(-0.0181559 9.84913e-10 4.88297e-28)
(-0.0181556 -8.42801e-09 0)
(-0.0181548 -1.22958e-08 2.71894e-28)
(-0.0181539 -1.03471e-08 -4.10776e-28)
(-0.0181532 -6.49214e-09 0)
(-0.0181528 -1.71142e-09 2.68394e-28)
(-0.0181529 2.00239e-09 0)
(-0.0181531 4.08128e-09 7.51715e-29)
(-0.0211454 5.99233e-09 4.01963e-28)
(-0.0211456 3.64318e-09 -5.7928e-33)
(-0.0211458 7.9829e-10 4.47208e-29)
(-0.0211458 -1.96919e-09 3.59839e-32)
(-0.0211456 -4.21909e-09 0)
(-0.0211454 -5.08463e-09 -4.20159e-29)
(-0.0211452 -4.12812e-09 2.53714e-37)
(-0.0211449 -8.10636e-11 9.20247e-33)
(-0.021145 7.25956e-09 -2.61787e-28)
(-0.0211455 1.43822e-08 -2.97668e-32)
(-0.0211463 1.90994e-08 -3.07372e-28)
(-0.0211475 1.6645e-08 -6.26537e-28)
(-0.0211482 2.94372e-09 -1.65324e-36)
(-0.021148 -1.31234e-08 -1.60096e-32)
(-0.0211471 -2.02294e-08 2.91909e-37)
(-0.021146 -1.75506e-08 4.56937e-32)
(-0.0211452 -1.13999e-08 3.73541e-28)
(-0.0211447 -3.49779e-09 -2.59566e-28)
(-0.0211447 2.96885e-09 3.53625e-32)
(-0.021145 6.65473e-09 -4.01165e-29)
(-0.0235365 9.061e-09 4.50978e-28)
(-0.0235368 5.30294e-09 -5.35433e-29)
(-0.0235369 1.30438e-09 -1.39574e-28)
(-0.0235369 -2.49446e-09 -1.15331e-28)
(-0.0235368 -5.62473e-09 5.33398e-32)
(-0.0235366 -7.13563e-09 1.84219e-32)
(-0.0235363 -6.26885e-09 -2.13612e-42)
(-0.023536 -9.65814e-10 3.13859e-28)
(-0.023536 9.49773e-09 -1.04256e-33)
(-0.0235365 2.01562e-08 1.33301e-32)
(-0.0235374 2.79134e-08 -2.61503e-28)
(-0.0235387 2.53641e-08 -1.60863e-40)
(-0.0235397 5.80259e-09 -2.80898e-32)
(-0.0235395 -1.80351e-08 -1.9041e-46)
(-0.0235385 -2.91412e-08 -1.92049e-40)
(-0.0235373 -2.58996e-08 4.13341e-32)
(-0.0235364 -1.72651e-08 6.05871e-32)
(-0.0235358 -5.84332e-09 3.19869e-32)
(-0.0235358 3.90795e-09 -6.4233e-32)
(-0.023536 9.50841e-09 -2.27582e-29)
(-0.0255646 1.2319e-08 -4.66954e-28)
(-0.025565 7.12617e-09 4.55589e-33)
(-0.0255651 1.93565e-09 2.32235e-33)
(-0.0255651 -2.88783e-09 -1.49147e-32)
(-0.025565 -6.94722e-09 -1.55899e-28)
(-0.0255648 -9.22646e-09 1.66427e-37)
(-0.0255645 -8.72724e-09 -1.45459e-28)
(-0.0255642 -2.33593e-09 7.73011e-33)
(-0.0255641 1.14128e-08 -8.9964e-34)
(-0.0255646 2.61595e-08 -1.20865e-32)
(-0.0255656 3.75931e-08 4.89342e-28)
(-0.025567 3.54076e-08 1.42384e-36)
(-0.0255681 9.63541e-09 4.88809e-28)
(-0.0255681 -2.28803e-08 -1.29902e-32)
(-0.025567 -3.87702e-08 -2.47374e-37)
(-0.0255657 -3.5087e-08 3.78713e-32)
(-0.0255647 -2.40808e-08 -5.56134e-32)
(-0.025564 -8.78007e-09 2.54383e-28)
(-0.0255639 4.73247e-09 -4.13651e-46)
(-0.0255641 1.25451e-08 -2.55496e-32)
(-0.0273549 1.57724e-08 -4.83672e-28)
(-0.0273552 9.09327e-09 2.51682e-50)
(-0.0273554 2.74795e-09 1.05616e-28)
(-0.0273554 -3.13005e-09 1.29304e-28)
(-0.0273553 -8.12419e-09 4.54592e-32)
(-0.0273551 -1.13571e-08 -7.38519e-29)
(-0.0273548 -1.14772e-08 -2.43633e-48)
(-0.0273544 -4.19436e-09 7.21244e-33)
(-0.0273543 1.30039e-08 -6.23579e-28)
(-0.0273548 3.22626e-08 2.13015e-28)
(-0.0273558 4.80199e-08 4.93571e-32)
(-0.0273574 4.66658e-08 4.58946e-32)
(-0.0273586 1.44257e-08 -4.76676e-28)
(-0.0273586 -2.7569e-08 -1.18801e-32)
(-0.0273575 -4.89838e-08 -2.30142e-37)
(-0.0273561 -4.51194e-08 1.87495e-28)
(-0.027355 -3.16741e-08 3.7297e-28)
(-0.0273542 -1.22975e-08 -4.96366e-28)
(-0.0273541 5.4179e-09 9.40669e-29)
(-0.0273543 1.57178e-08 1.37679e-29)
(-0.0289793 1.93831e-08 4.98808e-28)
(-0.0289796 1.11928e-08 5.59372e-29)
(-0.0289798 3.54306e-09 -1.96324e-29)
(-0.0289798 -3.211e-09 1.32983e-28)
(-0.0289798 -9.15475e-09 1.64652e-28)
(-0.0289796 -1.34873e-08 7.84916e-29)
(-0.0289793 -1.44936e-08 2.21917e-48)
(-0.0289789 -6.53865e-09 -3.32436e-28)
(-0.0289787 1.42408e-08 6.57717e-34)
(-0.0289791 3.84137e-08 1.01695e-32)
(-0.0289801 5.90976e-08 -2.25903e-28)
(-0.0289818 5.90481e-08 1.15025e-27)
(-0.0289832 2.01606e-08 2.29517e-46)
(-0.0289833 -3.20265e-08 -2.00538e-28)
(-0.0289822 -5.96875e-08 -8.7172e-29)
(-0.0289807 -5.60464e-08 2.57556e-28)
(-0.0289795 -3.98731e-08 9.62369e-32)
(-0.0289786 -1.63892e-08 4.81348e-28)
(-0.0289785 5.94153e-09 -2.57385e-32)
(-0.0289787 1.89977e-08 4.38227e-32)
(-0.0304824 2.32063e-08 5.37097e-28)
(-0.0304828 1.34215e-08 5.88616e-29)
(-0.030483 4.53532e-09 -1.82973e-33)
(-0.0304831 -3.12638e-09 1.34606e-28)
(-0.030483 -1.00314e-08 1.59671e-28)
(-0.0304829 -1.55982e-08 8.75176e-29)
(-0.0304825 -1.77525e-08 -1.36964e-28)
(-0.0304821 -9.35096e-09 -6.60825e-28)
(-0.0304818 1.50962e-08 3.1282e-28)
(-0.0304822 4.46045e-08 -3.30774e-28)
(-0.0304833 7.07276e-08 -4.29388e-32)
(-0.0304851 7.24663e-08 -5.64863e-28)
(-0.0304866 2.68169e-08 4.53411e-28)
(-0.0304868 -3.62022e-08 2.04628e-28)
(-0.0304856 -7.08129e-08 -7.50598e-29)
(-0.0304841 -6.75109e-08 -3.04634e-28)
(-0.0304828 -4.89242e-08 -4.52217e-32)
(-0.0304818 -2.10403e-08 2.35226e-28)
(-0.0304816 6.2887e-09 -9.63362e-29)
(-0.0304819 2.23576e-08 -1.65909e-38)
(-0.0318935 2.70731e-08 6.42883e-28)
(-0.0318938 1.57677e-08 -1.15967e-28)
(-0.031894 5.73276e-09 -1.02818e-37)
(-0.0318941 -2.87239e-09 -1.31332e-28)
(-0.0318941 -1.07447e-08 1.88644e-32)
(-0.031894 -1.76755e-08 -9.48188e-29)
(-0.0318936 -2.12234e-08 1.30917e-28)
(-0.0318931 -1.26186e-08 3.21558e-28)
(-0.0318928 1.55682e-08 7.52377e-37)
(-0.0318932 5.07497e-08 1.75522e-28)
(-0.0318942 8.28267e-08 2.65706e-28)
(-0.0318961 8.68455e-08 -1.10661e-27)
(-0.0318978 3.43995e-08 4.46011e-28)
(-0.0318981 -4.00135e-08 -1.02863e-36)
(-0.0318969 -8.22682e-08 -5.91914e-29)
(-0.0318953 -7.96534e-08 -2.93605e-28)
(-0.0318939 -5.86135e-08 -2.32672e-28)
(-0.0318929 -2.62502e-08 -2.32477e-28)
(-0.0318926 6.426e-09 0)
(-0.0318929 2.5767e-08 5.8993e-31)
(-0.0332321 3.05715e-08 4.40323e-33)
(-0.0332325 1.82076e-08 -5.89494e-29)
(-0.0332327 6.92499e-09 -4.75633e-29)
(-0.0332328 -2.48266e-09 -2.63054e-28)
(-0.0332328 -1.12801e-08 -1.54901e-28)
(-0.0332327 -1.97102e-08 -1.80002e-28)
(-0.0332323 -2.48873e-08 2.65875e-28)
(-0.0332318 -1.628e-08 6.26033e-28)
(-0.0332314 1.56502e-08 6.37905e-43)
(-0.0332317 5.66215e-08 4.87417e-28)
(-0.0332328 9.54759e-08 -3.70022e-28)
(-0.0332348 1.02099e-07 -5.40706e-28)
(-0.0332366 4.28772e-08 -4.10305e-28)
(-0.0332369 -4.34017e-08 -3.6189e-28)
(-0.0332358 -9.3956e-08 7.39587e-29)
(-0.0332341 -9.23499e-08 0)
(-0.0332327 -6.8948e-08 2.77993e-28)
(-0.0332315 -3.20124e-08 2.15124e-28)
(-0.0332312 6.31478e-09 8.83662e-29)
(-0.0332315 2.91948e-08 -1.80151e-32)
(-0.0345121 3.57712e-08 -3.02611e-28)
(-0.0345126 2.08198e-08 2.5814e-29)
(-0.0345128 8.26439e-09 1.68915e-33)
(-0.0345129 -1.86705e-09 -1.25067e-28)
(-0.0345129 -1.16594e-08 -2.08288e-28)
(-0.0345128 -2.17305e-08 -3.68737e-29)
(-0.0345125 -2.87722e-08 -1.66782e-33)
(-0.0345119 -2.04036e-08 -2.06717e-28)
(-0.0345114 1.54408e-08 -1.27038e-28)
(-0.0345118 6.26049e-08 8.45482e-33)
(-0.0345128 1.08691e-07 -4.0763e-28)
(-0.0345149 1.18191e-07 -2.40317e-28)
(-0.0345168 5.20438e-08 -4.14839e-28)
(-0.0345172 -4.66485e-08 0)
(-0.0345161 -1.06064e-07 4.84208e-29)
(-0.0345144 -1.05527e-07 1.10423e-28)
(-0.0345129 -7.99886e-08 5.18737e-28)
(-0.0345117 -3.81937e-08 2.33163e-32)
(-0.0345113 6.12989e-09 7.02872e-29)
(-0.0345116 3.27088e-08 -1.48188e-30)
(-0.0361118 3.99298e-08 -1.39049e-32)
(-0.0361122 2.42246e-08 -3.37616e-29)
(-0.0361124 1.01913e-08 -5.34068e-29)
(-0.0361126 -9.09429e-10 3.70385e-28)
(-0.0361126 -1.19178e-08 -4.55193e-28)
(-0.0361125 -2.42028e-08 1.56999e-28)
(-0.0361122 -3.39363e-08 -5.44977e-33)
(-0.0361115 -2.61885e-08 -2.38381e-28)
(-0.036111 1.45617e-08 5.52096e-28)
(-0.0361113 7.06873e-08 0)
(-0.0361124 1.25124e-07 -3.23539e-28)
(-0.0361146 1.40044e-07 1.03627e-27)
(-0.0361166 6.53564e-08 0)
(-0.0361172 -4.98379e-08 -1.18645e-28)
(-0.036116 -1.21682e-07 -2.43044e-28)
(-0.0361142 -1.23429e-07 3.0768e-28)
(-0.0361126 -9.49606e-08 -6.83671e-28)
(-0.0361113 -4.70895e-08 -2.35035e-28)
(-0.0361109 5.31014e-09 0)
(-0.0361112 3.7124e-08 1.84289e-29)
(-0.0380383 4.84859e-08 -3.34379e-32)
(-0.0380388 2.89717e-08 6.45036e-30)
(-0.038039 1.28806e-08 -7.09863e-29)
(-0.0380392 6.60238e-10 -1.85701e-28)
(-0.0380393 -1.18405e-08 4.97103e-28)
(-0.0380392 -2.72614e-08 0)
(-0.0380389 -4.097e-08 0)
(-0.0380382 -3.44999e-08 5.51504e-29)
(-0.0380376 1.26469e-08 -7.58494e-28)
(-0.0380378 7.94531e-08 5.40576e-29)
(-0.0380389 1.48767e-07 2.87865e-28)
(-0.0380412 1.69599e-07 6.8172e-28)
(-0.0380433 8.38551e-08 4.66944e-28)
(-0.0380441 -5.33062e-08 8.80919e-29)
(-0.038043 -1.42218e-07 -1.70274e-28)
(-0.0380411 -1.47263e-07 -3.01048e-28)
(-0.0380394 -1.15536e-07 -7.26944e-28)
(-0.038038 -5.93992e-08 -2.80512e-28)
(-0.0380375 3.95639e-09 -1.34567e-28)
(-0.0380377 4.28503e-08 -5.76276e-29)
(-0.0399939 5.53627e-08 -1.09521e-28)
(-0.0399944 3.42305e-08 -6.03639e-30)
(-0.0399947 1.6079e-08 1.94446e-28)
(-0.0399949 2.86349e-09 -4.49945e-32)
(-0.039995 -1.12877e-08 2.76501e-28)
(-0.039995 -3.01826e-08 1.16844e-28)
(-0.0399946 -4.86448e-08 -1.80353e-28)
(-0.0399939 -4.41897e-08 -5.45142e-29)
(-0.0399932 9.40392e-09 2.7467e-28)
(-0.0399934 8.91059e-08 1.84687e-29)
(-0.0399945 1.73063e-07 3.08349e-28)
(-0.0399968 2.02698e-07 8.75384e-29)
(-0.0399991 1.06047e-07 6.09184e-29)
(-0.04 -5.50677e-08 1.25112e-28)
(-0.039999 -1.63814e-07 3.10636e-28)
(-0.039997 -1.74106e-07 -9.29298e-28)
(-0.0399952 -1.387e-07 -5.94217e-29)
(-0.0399937 -7.40809e-08 2.47095e-28)
(-0.0399932 1.44404e-09 -8.7249e-29)
(-0.0399933 4.86504e-08 -6.09311e-29)
(-0.041987 6.41137e-08 -2.6822e-29)
(-0.0419875 4.0167e-08 5.53669e-30)
(-0.0419878 1.981e-08 2.62694e-29)
(-0.041988 5.61626e-09 9.9522e-32)
(-0.0419882 -1.00982e-08 -2.41663e-28)
(-0.0419882 -3.30667e-08 1.69941e-29)
(-0.0419878 -5.70913e-08 -2.23552e-29)
(-0.0419871 -5.53087e-08 4.59171e-28)
(-0.0419863 5.03422e-09 7.94986e-28)
(-0.0419864 9.87858e-08 -1.94181e-28)
(-0.0419875 1.99641e-07 -1.8277e-28)
(-0.0419899 2.39355e-07 -1.39023e-27)
(-0.0419923 1.3175e-07 -6.04812e-29)
(-0.0419933 -5.55299e-08 -1.1896e-28)
(-0.0419924 -1.86774e-07 3.80078e-28)
(-0.0419904 -2.03449e-07 4.07215e-28)
(-0.0419885 -1.65241e-07 4.26687e-28)
(-0.0419869 -9.10704e-08 2.63769e-28)
(-0.0419862 -2.04473e-09 1.79238e-28)
(-0.0419864 5.45989e-08 1.55826e-28)
(-0.0440236 7.33541e-08 2.30334e-28)
(-0.0440241 4.68084e-08 -5.34148e-30)
(-0.0440245 2.41451e-08 -1.62808e-28)
(-0.0440247 9.05121e-09 -1.76497e-28)
(-0.0440249 -8.51651e-09 -2.77631e-29)
(-0.0440249 -3.57831e-08 -1.82587e-29)
(-0.0440246 -6.62001e-08 2.08863e-29)
(-0.0440238 -6.78787e-08 -3.94214e-28)
(-0.044023 -8.44542e-10 -3.32326e-28)
(-0.044023 1.07738e-07 -6.64128e-29)
(-0.0440241 2.28739e-07 1.95375e-31)
(-0.0440265 2.7973e-07 -7.35879e-28)
(-0.0440291 1.61403e-07 5.54458e-29)
(-0.0440302 -5.39673e-08 -9.45463e-29)
(-0.0440294 -2.10699e-07 -1.86165e-28)
(-0.0440274 -2.35741e-07 1.21003e-27)
(-0.0440254 -1.95029e-07 2.81729e-28)
(-0.0440237 -1.10721e-07 0)
(-0.0440229 -7.03304e-09 2.51231e-28)
(-0.044023 6.05338e-08 2.09269e-28)
(-0.0461084 8.32744e-08 -4.90527e-32)
(-0.0461089 5.42106e-08 5.21738e-30)
(-0.0461092 2.91482e-08 7.84545e-29)
(-0.0461095 1.32164e-08 -3.77601e-28)
(-0.0461097 -6.10017e-09 2.24557e-28)
(-0.0461098 -3.82846e-08 1.67134e-28)
(-0.0461095 -7.58937e-08 -1.62699e-28)
(-0.0461087 -8.18604e-08 3.27659e-28)
(-0.0461079 -8.41648e-09 -9.63871e-33)
(-0.0461078 1.16877e-07 -9.15128e-30)
(-0.0461088 2.59259e-07 0)
(-0.0461112 3.23747e-07 -7.55813e-46)
(-0.0461139 1.95319e-07 -4.87369e-29)
(-0.0461152 -4.99903e-08 -1.09906e-29)
(-0.0461145 -2.35327e-07 -1.71371e-28)
(-0.0461125 -2.70914e-07 -2.30824e-28)
(-0.0461104 -2.28669e-07 -2.79199e-28)
(-0.0461086 -1.32908e-07 -1.46794e-28)
(-0.0461077 -1.38599e-08 -1.37309e-28)
(-0.0461078 6.62634e-08 1.73512e-29)
(-0.0482442 9.38455e-08 2.42279e-47)
(-0.0482448 6.24329e-08 -4.3726e-29)
(-0.0482451 3.48978e-08 -6.98954e-29)
(-0.0482454 1.81785e-08 1.5145e-28)
(-0.0482457 -2.78959e-09 -2.39816e-31)
(-0.0482458 -4.04851e-08 -1.5674e-28)
(-0.0482455 -8.6087e-08 1.2748e-28)
(-0.0482447 -9.72058e-08 4.40902e-28)
(-0.0482438 -1.76589e-08 -3.19061e-28)
(-0.0482436 1.25573e-07 3.23457e-28)
(-0.0482447 2.91263e-07 2.393e-31)
(-0.0482471 3.71368e-07 5.97588e-28)
(-0.0482498 2.33747e-07 4.484e-29)
(-0.0482513 -4.30862e-08 2.32754e-28)
(-0.0482507 -2.60248e-07 -1.96965e-28)
(-0.0482487 -3.09213e-07 -6.25033e-28)
(-0.0482465 -2.66375e-07 2.8924e-28)
(-0.0482447 -1.57709e-07 -6.38771e-28)
(-0.0482437 -2.27863e-08 -2.88205e-28)
(-0.0482436 7.15846e-08 -4.92072e-28)
(-0.0504331 1.05005e-07 5.77765e-32)
(-0.0504336 7.15318e-08 7.40697e-29)
(-0.050434 4.14781e-08 -7.72378e-29)
(-0.0504343 2.39998e-08 3.87107e-28)
(-0.0504346 1.0653e-09 -2.15259e-28)
(-0.0504347 -4.23054e-08 -1.93794e-28)
(-0.0504345 -9.66393e-08 1.29623e-28)
(-0.0504337 -1.13743e-07 -3.41429e-28)
(-0.0504328 -2.86342e-08 2.93833e-28)
(-0.0504325 1.33179e-07 3.12578e-28)
(-0.0504335 3.2509e-07 2.13157e-28)
(-0.0504358 4.22044e-07 1.14942e-27)
(-0.0504386 2.76982e-07 -7.4668e-28)
(-0.0504403 -3.26922e-08 8.32528e-29)
(-0.0504398 -2.84948e-07 1.71626e-28)
(-0.0504379 -3.50498e-07 -3.55919e-28)
(-0.0504357 -3.0448e-07 0)
(-0.0504338 -1.89709e-07 -1.39186e-27)
(-0.0504327 -3.37942e-08 -2.76513e-29)
(-0.0504325 7.61949e-08 -1.59393e-28)
(-0.0526757 1.16653e-07 1.8879e-28)
(-0.0526763 8.15543e-08 7.84644e-29)
(-0.0526767 4.89638e-08 6.45842e-29)
(-0.052677 3.07477e-08 1.49833e-46)
(-0.0526774 5.94924e-09 -2.26549e-28)
(-0.0526775 -4.35994e-08 1.95283e-28)
(-0.0526773 -1.07468e-07 -1.08886e-28)
(-0.0526765 -1.31088e-07 -2.82148e-28)
(-0.0526756 -4.16597e-08 4.03134e-28)
(-0.0526753 1.39942e-07 -1.22195e-28)
(-0.0526762 3.60447e-07 -1.63296e-28)
(-0.0526784 4.75034e-07 1.08865e-28)
(-0.0526813 3.2511e-07 -4.52439e-29)
(-0.0526831 -1.82072e-08 -6.73509e-29)
(-0.0526828 -3.08755e-07 1.92865e-28)
(-0.052681 -3.94467e-07 3.08097e-28)
(-0.0526786 -3.48602e-07 -9.57845e-28)
(-0.0526767 -2.23612e-07 2.75504e-27)
(-0.0526755 -4.80783e-08 1.20522e-29)
(-0.0526752 8.02752e-08 9.95022e-29)
(-0.0549722 1.28636e-07 2.20987e-28)
(-0.0549727 9.25325e-08 -6.30322e-29)
(-0.0549731 5.74765e-08 8.01085e-30)
(-0.0549735 3.84539e-08 1.63657e-28)
(-0.0549739 1.17808e-08 1.88234e-28)
(-0.054974 -4.43154e-08 2.57335e-28)
(-0.0549738 -1.18331e-07 -1.22576e-28)
(-0.0549731 -1.49802e-07 -4.51701e-29)
(-0.0549722 -5.59398e-08 -2.43203e-28)
(-0.0549718 1.455e-07 -4.81635e-29)
(-0.0549726 3.93253e-07 1.02555e-27)
(-0.0549748 5.33622e-07 1.41709e-27)
(-0.0549776 3.78268e-07 5.79456e-28)
(-0.0549796 9.74587e-10 7.70991e-29)
(-0.0549795 -3.3088e-07 1.88622e-28)
(-0.0549778 -4.41105e-07 7.05404e-29)
(-0.0549754 -3.9995e-07 4.25057e-30)
(-0.0549734 -2.57226e-07 5.95974e-28)
(-0.054972 -6.67176e-08 1.51071e-28)
(-0.0549717 8.29221e-08 2.8936e-31)
(-0.0573214 1.40743e-07 -2.07525e-28)
(-0.0573219 1.04476e-07 -3.47188e-29)
(-0.0573224 6.70985e-08 -7.55074e-30)
(-0.0573228 4.71984e-08 2.04692e-29)
(-0.0573232 1.86097e-08 -1.52955e-28)
(-0.0573234 -4.41983e-08 -2.48144e-28)
(-0.0573232 -1.29149e-07 9.34781e-29)
(-0.0573225 -1.69197e-07 4.76729e-29)
(-0.0573216 -7.17138e-08 1.34359e-28)
(-0.0573211 1.49435e-07 2.36354e-28)
(-0.0573219 4.24144e-07 1.44398e-27)
(-0.0573239 5.95925e-07 2.34164e-27)
(-0.0573267 4.3671e-07 -7.91207e-29)
(-0.0573288 2.55821e-08 2.15427e-29)
(-0.057329 -3.50564e-07 2.3948e-28)
(-0.0573274 -4.89933e-07 -2.42893e-28)
(-0.0573249 -4.52968e-07 -8.64132e-29)
(-0.057323 -2.97028e-07 4.07216e-28)
(-0.0573214 -8.90035e-08 -1.8363e-28)
(-0.057321 8.29878e-08 -1.76002e-28)
(-0.0597218 1.52702e-07 -2.54044e-28)
(-0.0597223 1.17361e-07 2.54022e-29)
(-0.0597228 7.79286e-08 6.89111e-30)
(-0.0597232 5.70495e-08 -1.67848e-28)
(-0.0597236 2.64861e-08 -2.03146e-28)
(-0.0597238 -4.34432e-08 -2.87481e-29)
(-0.0597237 -1.39324e-07 3.75247e-30)
(-0.0597231 -1.87932e-07 -2.51944e-28)
(-0.0597222 -8.99951e-08 2.42502e-29)
(-0.0597217 1.51588e-07 -3.06361e-28)
(-0.0597223 4.63017e-07 -1.31813e-45)
(-0.0597242 6.50813e-07 -1.84912e-27)
(-0.059727 4.99231e-07 4.27287e-28)
(-0.0597291 5.67746e-08 -3.62093e-28)
(-0.0597295 -3.66332e-07 -1.9421e-28)
(-0.0597281 -5.40243e-07 1.82377e-28)
(-0.0597257 -5.06947e-07 3.9452e-29)
(-0.0597237 -3.4513e-07 -3.1456e-29)
(-0.059722 -1.15793e-07 2.77063e-31)
(-0.0597214 8.13381e-08 0)
(-0.062171 1.64154e-07 -2.4512e-28)
(-0.0621715 1.3112e-07 7.37037e-33)
(-0.062172 9.00596e-08 -5.98864e-30)
(-0.0621724 6.80838e-08 6.29208e-48)
(-0.0621728 3.54437e-08 1.91981e-29)
(-0.0621731 -4.1975e-08 2.06487e-29)
(-0.062173 -1.48523e-07 -5.27856e-29)
(-0.0621724 -2.06647e-07 8.81484e-29)
(-0.0621716 -1.09511e-07 -2.4227e-28)
(-0.062171 1.51496e-07 -1.25187e-29)
(-0.0621715 4.9506e-07 0)
(-0.0621732 7.11913e-07 -5.11267e-29)
(-0.062176 5.65584e-07 -5.65588e-28)
(-0.0621782 9.52898e-08 2.91069e-28)
(-0.0621789 -3.77459e-07 -2.95225e-28)
(-0.0621776 -5.90987e-07 1.31003e-28)
(-0.0621752 -5.6637e-07 -9.44927e-29)
(-0.0621732 -3.96645e-07 2.65109e-29)
(-0.0621714 -1.47587e-07 6.22921e-31)
(-0.0621707 7.6653e-08 0)
(-0.0646659 1.74645e-07 -3.52801e-29)
(-0.0646664 1.45633e-07 -8.29559e-30)
(-0.0646669 1.03568e-07 4.92945e-30)
(-0.0646674 8.03931e-08 -1.29003e-28)
(-0.0646678 4.54703e-08 -1.88097e-29)
(-0.0646681 -3.91153e-08 -1.62037e-29)
(-0.064668 -1.56996e-07 -3.04517e-29)
(-0.0646676 -2.25357e-07 1.11794e-28)
(-0.0646668 -1.2948e-07 -1.05321e-28)
(-0.0646662 1.48804e-07 4.835e-30)
(-0.0646665 5.22501e-07 4.64358e-31)
(-0.064668 7.75605e-07 -1.26128e-28)
(-0.0646707 6.37671e-07 2.18762e-28)
(-0.064673 1.38788e-07 -2.46542e-29)
(-0.0646739 -3.82532e-07 -1.20728e-29)
(-0.0646729 -6.40932e-07 -7.20292e-29)
(-0.0646706 -6.32595e-07 -5.98828e-45)
(-0.0646685 -4.49912e-07 2.3903e-28)
(-0.0646666 -1.85256e-07 3.46164e-31)
(-0.0646657 6.82476e-08 7.26948e-31)
(-0.067203 1.83614e-07 3.82619e-29)
(-0.0672034 1.60697e-07 -1.83576e-30)
(-0.067204 1.18521e-07 -3.89565e-30)
(-0.0672044 9.40691e-08 -1.50335e-29)
(-0.0672049 5.67779e-08 3.82224e-28)
(-0.0672052 -3.51225e-08 8.47678e-29)
(-0.0672052 -1.64239e-07 3.37651e-28)
(-0.0672048 -2.42826e-07 -1.38348e-28)
(-0.0672041 -1.50368e-07 8.97382e-31)
(-0.0672035 1.43091e-07 -5.0052e-29)
(-0.0672037 5.49499e-07 -1.0376e-30)
(-0.067205 8.36124e-07 -1.19833e-28)
(-0.0672075 7.13995e-07 4.01909e-31)
(-0.0672098 1.88634e-07 1.65402e-27)
(-0.067211 -3.8043e-07 1.07532e-28)
(-0.0672102 -6.88642e-07 -1.15623e-29)
(-0.0672081 -6.98257e-07 4.71622e-28)
(-0.0672059 -5.13697e-07 -3.91161e-28)
(-0.067204 -2.27673e-07 3.75928e-31)
(-0.0672029 5.5383e-08 1.48298e-28)
(-0.069778 1.90372e-07 -3.54884e-28)
(-0.0697784 1.76031e-07 -3.16596e-29)
(-0.069779 1.3495e-07 2.34432e-29)
(-0.0697794 1.09162e-07 1.09931e-28)
(-0.0697799 6.96223e-08 2.45978e-28)
(-0.0697802 -3.03949e-08 0)
(-0.0697802 -1.69606e-07 1.75336e-28)
(-0.06978 -2.58441e-07 -1.90792e-28)
(-0.0697794 -1.7169e-07 -1.66359e-29)
(-0.0697787 1.33925e-07 1.2976e-28)
(-0.0697788 5.7175e-07 5.78573e-31)
(-0.0697799 8.95822e-07 3.0233e-28)
(-0.0697822 7.91636e-07 -6.31381e-28)
(-0.0697845 2.4691e-07 9.37016e-28)
(-0.0697859 -3.69701e-07 1.6547e-28)
(-0.0697855 -7.32405e-07 7.74598e-29)
(-0.0697835 -7.67265e-07 3.47941e-28)
(-0.0697813 -5.83355e-07 -9.52678e-29)
(-0.0697793 -2.75429e-07 4.91944e-28)
(-0.0697781 3.72572e-08 1.97929e-28)
(-0.0723863 1.94096e-07 3.3165e-28)
(-0.0723866 1.91253e-07 8.00739e-29)
(-0.0723872 1.52798e-07 2.41464e-33)
(-0.0723877 1.2573e-07 0)
(-0.0723881 8.32745e-08 2.0641e-28)
(-0.0723885 -2.35268e-08 -3.04274e-31)
(-0.0723885 -1.7326e-07 -1.42636e-28)
(-0.0723883 -2.72019e-07 -5.89636e-31)
(-0.0723879 -1.92483e-07 -1.9896e-29)
(-0.0723872 1.21357e-07 5.43295e-28)
(-0.0723871 5.89653e-07 5.70378e-28)
(-0.072388 9.51672e-07 -9.47429e-29)
(-0.0723901 8.68086e-07 -3.50749e-28)
(-0.0723924 3.1527e-07 -7.01338e-28)
(-0.072394 -3.49047e-07 -1.90408e-28)
(-0.0723939 -7.70286e-07 -2.00448e-29)
(-0.0723921 -8.39243e-07 -7.54527e-29)
(-0.0723899 -6.4658e-07 4.37629e-27)
(-0.0723879 -3.40257e-07 1.34835e-28)
(-0.0723865 1.26634e-08 1.0153e-30)
(-0.0750227 1.93837e-07 3.91303e-28)
(-0.0750229 2.05864e-07 1.36246e-28)
(-0.0750234 1.71981e-07 6.98369e-34)
(-0.075024 1.4378e-07 -6.61424e-29)
(-0.0750244 9.84639e-08 -1.5542e-28)
(-0.0750248 -1.50252e-08 -9.23064e-29)
(-0.0750249 -1.74949e-07 -1.90758e-28)
(-0.0750248 -2.82982e-07 -6.34726e-29)
(-0.0750244 -2.12116e-07 -3.94695e-29)
(-0.0750238 1.06389e-07 -3.30696e-28)
(-0.0750235 6.00961e-07 5.60705e-28)
(-0.0750242 1.00149e-06 -5.59565e-28)
(-0.075026 9.46172e-07 -4.00471e-28)
(-0.0750283 3.90161e-07 1.12154e-29)
(-0.0750301 -3.16651e-07 -6.30678e-28)
(-0.0750303 -8.00378e-07 -1.14906e-28)
(-0.0750288 -9.1099e-07 -6.19404e-29)
(-0.0750266 -7.28374e-07 1.23607e-27)
(-0.0750246 -3.98749e-07 -4.88553e-28)
(-0.0750231 -1.9734e-08 3.98151e-31)
(-0.0776816 1.88544e-07 5.2105e-32)
(-0.0776817 2.19226e-07 -1.08393e-28)
(-0.0776822 1.92313e-07 3.93096e-33)
(-0.0776828 1.63317e-07 -6.27527e-30)
(-0.0776832 1.15247e-07 -3.27773e-28)
(-0.0776836 -5.4846e-09 -1.35182e-29)
(-0.0776838 -1.73723e-07 -1.58142e-28)
(-0.0776837 -2.90732e-07 -3.26292e-30)
(-0.0776835 -2.30062e-07 -1.65998e-29)
(-0.0776829 8.84752e-08 -7.64618e-29)
(-0.0776825 6.0598e-07 -7.40745e-28)
(-0.077683 1.04446e-06 3.70363e-28)
(-0.0776845 1.02426e-06 -7.57748e-28)
(-0.0776867 4.70408e-07 1.82048e-28)
(-0.0776886 -2.73177e-07 3.33717e-29)
(-0.0776892 -8.18913e-07 1.77418e-28)
(-0.0776879 -9.81796e-07 -8.20212e-30)
(-0.0776858 -8.15672e-07 -4.87728e-28)
(-0.0776838 -4.63611e-07 -4.45387e-31)
(-0.0776822 -5.99005e-08 -2.22606e-28)
(-0.0803572 1.7676e-07 4.49165e-28)
(-0.0803572 2.30543e-07 -1.56965e-28)
(-0.0803577 2.13496e-07 0)
(-0.0803582 1.84326e-07 3.78778e-29)
(-0.0803587 1.32727e-07 8.01908e-29)
(-0.0803591 6.94613e-09 2.86957e-28)
(-0.0803593 -1.70099e-07 -3.05743e-28)
(-0.0803594 -2.94805e-07 -1.0345e-30)
(-0.0803592 -2.4577e-07 -1.15386e-28)
(-0.0803587 6.81832e-08 9.63496e-29)
(-0.0803582 6.03691e-07 -7.6751e-29)
(-0.0803584 1.08287e-06 -7.11686e-29)
(-0.0803597 1.09729e-06 9.19737e-28)
(-0.0803617 5.55465e-07 4.81402e-29)
(-0.0803638 -2.15563e-07 -7.80852e-28)
(-0.0803647 -8.26731e-07 6.51012e-29)
(-0.0803638 -1.04864e-06 1.22288e-28)
(-0.0803618 -8.97736e-07 -1.02328e-29)
(-0.0803597 -5.45007e-07 -4.50507e-28)
(-0.080358 -1.08791e-07 7.57541e-30)
(-0.0830435 1.56853e-07 6.51684e-28)
(-0.0830434 2.38839e-07 8.95488e-32)
(-0.0830438 2.35095e-07 -6.78496e-29)
(-0.0830443 2.06782e-07 0)
(-0.0830448 1.52243e-07 4.69476e-30)
(-0.0830452 2.08793e-08 -1.30941e-28)
(-0.0830455 -1.63242e-07 4.43767e-29)
(-0.0830456 -2.95203e-07 7.82222e-29)
(-0.0830456 -2.57352e-07 2.14982e-28)
(-0.0830451 4.54061e-08 3.9294e-28)
(-0.0830446 5.93741e-07 6.09439e-28)
(-0.0830445 1.10977e-06 -5.2858e-28)
(-0.0830455 1.16653e-06 1.09789e-28)
(-0.0830474 6.44715e-07 -7.13869e-29)
(-0.0830494 -1.42158e-07 5.79541e-46)
(-0.0830507 -8.22129e-07 -6.52923e-29)
(-0.0830502 -1.10834e-06 -9.89407e-29)
(-0.0830483 -9.87414e-07 2.80139e-28)
(-0.0830463 -6.31781e-07 -5.79833e-28)
(-0.0830445 -1.64109e-07 -4.21288e-28)
(-0.0857343 1.27535e-07 -6.37169e-28)
(-0.085734 2.43021e-07 -1.92019e-28)
(-0.0857344 2.56457e-07 -1.17476e-29)
(-0.0857349 2.30579e-07 5.35319e-31)
(-0.0857354 1.73354e-07 -3.67317e-30)
(-0.0857358 3.67191e-08 -2.86508e-28)
(-0.0857361 -1.5307e-07 3.48042e-28)
(-0.0857362 -2.91784e-07 -1.22703e-28)
(-0.0857363 -2.65421e-07 -2.26251e-28)
(-0.085736 2.268e-08 2.15324e-29)
(-0.0857354 5.76066e-07 -2.50832e-28)
(-0.0857351 1.12499e-06 -8.39921e-29)
(-0.0857358 1.22212e-06 -1.33081e-27)
(-0.0857375 7.3726e-07 7.5304e-28)
(-0.0857395 -5.82322e-08 -2.64101e-28)
(-0.0857411 -7.91025e-07 -4.36197e-28)
(-0.085741 -1.15888e-06 -5.35248e-30)
(-0.0857393 -1.07751e-06 2.17522e-29)
(-0.0857373 -7.27829e-07 -1.53427e-27)
(-0.0857354 -2.27815e-07 -5.72888e-28)
(-0.0884234 8.77534e-08 -5.38784e-29)
(-0.088423 2.41836e-07 9.23521e-29)
(-0.0884233 2.76733e-07 1.05182e-28)
(-0.0884237 2.55471e-07 0)
(-0.0884242 1.95747e-07 2.3554e-30)
(-0.0884246 5.4891e-08 -2.13587e-46)
(-0.088425 -1.40456e-07 7.51737e-28)
(-0.0884252 -2.8323e-07 -7.46109e-29)
(-0.0884254 -2.69701e-07 -2.08391e-28)
(-0.0884251 9.26904e-10 -7.40802e-29)
(-0.0884246 5.50859e-07 -3.23302e-29)
(-0.088424 1.12837e-06 4.89353e-28)
(-0.0884244 1.27998e-06 7.99365e-28)
(-0.0884259 8.23385e-07 7.41793e-28)
(-0.0884279 3.02335e-08 -6.02003e-28)
(-0.0884297 -7.40888e-07 -8.95412e-28)
(-0.08843 -1.19378e-06 6.84795e-30)
(-0.0884286 -1.16835e-06 -3.23566e-28)
(-0.0884266 -8.02603e-07 -2.44924e-27)
(-0.0884247 -3.27908e-07 -3.70823e-28)
(-0.0911049 3.75018e-08 -1.87841e-29)
(-0.0911043 2.33052e-07 5.50681e-28)
(-0.0911044 2.95488e-07 8.41152e-29)
(-0.0911049 2.81077e-07 3.12974e-31)
(-0.0911054 2.19816e-07 1.208e-29)
(-0.0911058 7.49693e-08 9.94158e-29)
(-0.0911061 -1.24826e-07 -1.62211e-28)
(-0.0911064 -2.69795e-07 4.03022e-31)
(-0.0911067 -2.68807e-07 -8.79755e-32)
(-0.0911066 -2.01041e-08 1.98261e-29)
(-0.091106 5.18903e-07 2.94171e-28)
(-0.0911053 1.1163e-06 -7.64893e-29)
(-0.0911053 1.32613e-06 2.24138e-29)
(-0.0911067 9.13411e-07 4.76379e-28)
(-0.0911085 1.32258e-07 -1.75968e-27)
(-0.0911105 -6.78076e-07 1.10212e-27)
(-0.0911113 -1.21164e-06 -2.48661e-29)
(-0.0911102 -1.25645e-06 -1.29924e-30)
(-0.0911082 -9.28917e-07 1.19642e-27)
(-0.0911064 -3.919e-07 1.93262e-27)
(-0.093773 -2.18689e-08 5.3449e-28)
(-0.0937722 2.161e-07 -1.79121e-31)
(-0.0937722 3.1022e-07 1.50564e-29)
(-0.0937726 3.0682e-07 1.26229e-45)
(-0.0937731 2.45342e-07 -3.19179e-29)
(-0.0937735 9.67299e-08 5.16458e-29)
(-0.0937739 -1.06746e-07 -6.53635e-29)
(-0.0937742 -2.5044e-07 2.60974e-45)
(-0.0937745 -2.61933e-07 -1.48032e-31)
(-0.0937745 -3.85817e-08 2.36985e-29)
(-0.093774 4.81405e-07 1.84386e-44)
(-0.0937732 1.09164e-06 4.57545e-29)
(-0.0937729 1.35497e-06 1.17909e-29)
(-0.0937739 1.00954e-06 -2.60173e-28)
(-0.0937757 2.31511e-07 1.98684e-28)
(-0.0937777 -5.92402e-07 1.14407e-28)
(-0.0937789 -1.20866e-06 7.43709e-30)
(-0.0937782 -1.33694e-06 -4.79349e-28)
(-0.0937764 -1.033e-06 1.0029e-27)
(-0.0937745 -4.94329e-07 -6.0895e-28)
(-0.0964223 -9.4951e-08 1.77622e-28)
(-0.0964214 1.89655e-07 -1.40564e-28)
(-0.0964212 3.19446e-07 -4.00975e-28)
(-0.0964216 3.31877e-07 0)
(-0.096422 2.7235e-07 -7.00454e-29)
(-0.0964224 1.20676e-07 6.48168e-31)
(-0.0964228 -8.3114e-08 9.05238e-29)
(-0.0964232 -2.29032e-07 -2.20837e-28)
(-0.0964236 -2.50341e-07 -1.97687e-46)
(-0.0964237 -5.21087e-08 1.31685e-28)
(-0.0964232 4.4016e-07 0)
(-0.0964223 1.05165e-06 1.15854e-28)
(-0.0964217 1.36945e-06 -1.04187e-29)
(-0.0964225 1.07053e-06 -7.88124e-28)
(-0.096424 3.60818e-07 -1.33905e-27)
(-0.0964262 -4.86807e-07 1.7894e-28)
(-0.0964277 -1.18164e-06 7.06741e-30)
(-0.0964275 -1.40431e-06 3.61575e-28)
(-0.0964258 -1.14165e-06 5.54514e-29)
(-0.0964239 -6.02651e-07 8.57861e-28)
(-0.0990482 -2.04481e-07 -4.48091e-28)
(-0.0990471 1.49155e-07 -5.54536e-28)
(-0.0990468 3.21765e-07 -3.10792e-29)
(-0.099047 3.55204e-07 3.82335e-31)
(-0.0990475 3.00693e-07 0)
(-0.0990479 1.47265e-07 0)
(-0.0990483 -5.6725e-08 -8.40631e-29)
(-0.0990487 -2.03897e-07 -1.35974e-29)
(-0.0990491 -2.34122e-07 -1.48712e-28)
(-0.0990493 -6.27767e-08 -1.92551e-28)
(-0.0990489 3.96397e-07 -2.43352e-28)
(-0.099048 9.9751e-07 -1.67951e-28)
(-0.0990471 1.36538e-06 -5.07915e-30)
(-0.0990475 1.15138e-06 5.00994e-28)
(-0.099049 4.69937e-07 -1.55177e-30)
(-0.0990511 -3.70132e-07 -2.212e-30)
(-0.0990528 -1.12304e-06 5.72901e-29)
(-0.0990531 -1.45659e-06 5.89399e-28)
(-0.0990517 -1.25039e-06 -4.99584e-28)
(-0.0990498 -6.92334e-07 -1.60798e-27)
(-0.101647 -2.73052e-07 1.13741e-28)
(-0.101645 9.15171e-08 -4.20827e-29)
(-0.101645 3.15367e-07 4.68757e-28)
(-0.101645 3.75415e-07 0)
(-0.101645 3.29776e-07 1.30228e-28)