/*--------------------------------*- C++ -*----------------------------------*\
  =========                 |
  \\      /  F ield         | OpenFOAM: The Open Source CFD Toolbox
   \\    /   O peration     | Website:  https://openfoam.org
    \\  /    A nd           | Version:  6
     \\/     M anipulation  |
\*---------------------------------------------------------------------------*/
FoamFile
{
    version     2.0;
    format      ascii;
    class       volScalarField;
    location    "19.44";
    object      ddt0(omega);
}
// * * * * * * * * * * * * * * * * * * * * * * * * * * * * * * * * * * * * * //

dimensions      [0 0 -2 0 0 0 0];

internalField   nonuniform List<scalar> 
3240
(
-346.652
-346.656
-346.658
-346.659
-346.658
-346.655
-346.651
-346.646
-346.645
-346.652
-346.666
-346.686
-346.701
-346.698
-346.683
-346.666
-346.652
-346.643
-346.642
-346.646
-553.912
-553.919
-553.922
-553.924
-553.925
-553.924
-553.917
-553.906
-553.899
-553.905
-553.926
-553.962
-553.992
-553.994
-553.973
-553.944
-553.919
-553.902
-553.899
-553.904
-639.861
-639.868
-639.872
-639.875
-639.879
-639.879
-639.872
-639.857
-639.844
-639.848
-639.871
-639.915
-639.954
-639.961
-639.938
-639.905
-639.875
-639.852
-639.847
-639.853
-682.55
-682.558
-682.562
-682.566
-682.571
-682.574
-682.566
-682.549
-682.532
-682.533
-682.557
-682.605
-682.65
-682.661
-682.638
-682.602
-682.569
-682.544
-682.536
-682.542
-706.162
-706.17
-706.174
-706.179
-706.186
-706.189
-706.182
-706.163
-706.143
-706.143
-706.167
-706.218
-706.265
-706.278
-706.256
-706.22
-706.185
-706.158
-706.149
-706.155
-719.968
-719.976
-719.981
-719.986
-719.993
-719.998
-719.991
-719.97
-719.949
-719.947
-719.971
-720.023
-720.072
-720.087
-720.066
-720.029
-719.994
-719.965
-719.956
-719.961
-728.063
-728.072
-728.076
-728.082
-728.09
-728.094
-728.088
-728.067
-728.045
-728.042
-728.065
-728.117
-728.167
-728.184
-728.164
-728.127
-728.091
-728.062
-728.052
-728.057
-732.471
-732.48
-732.485
-732.491
-732.499
-732.504
-732.498
-732.478
-732.455
-732.452
-732.474
-732.525
-732.575
-732.592
-732.573
-732.537
-732.501
-732.472
-732.461
-732.466
-734.298
-734.307
-734.312
-734.318
-734.326
-734.332
-734.326
-734.306
-734.283
-734.279
-734.301
-734.35
-734.4
-734.418
-734.4
-734.364
-734.329
-734.3
-734.289
-734.293
-734.204
-734.213
-734.218
-734.224
-734.232
-734.238
-734.232
-734.213
-734.191
-734.186
-734.206
-734.255
-734.303
-734.322
-734.305
-734.27
-734.236
-734.207
-734.195
-734.199
-732.617
-732.627
-732.632
-732.638
-732.646
-732.652
-732.647
-732.628
-732.606
-732.602
-732.621
-732.667
-732.714
-732.734
-732.718
-732.684
-732.65
-732.622
-732.61
-732.614
-729.84
-729.85
-729.855
-729.86
-729.868
-729.874
-729.87
-729.853
-729.831
-729.826
-729.844
-729.888
-729.934
-729.954
-729.94
-729.907
-729.874
-729.846
-729.834
-729.837
-724.971
-724.98
-724.985
-724.991
-724.998
-725.004
-725.001
-724.985
-724.964
-724.959
-724.975
-725.017
-725.06
-725.081
-725.068
-725.037
-725.005
-724.978
-724.966
-724.968
-716.81
-716.82
-716.825
-716.83
-716.837
-716.843
-716.84
-716.826
-716.807
-716.801
-716.815
-716.853
-716.894
-716.915
-716.905
-716.876
-716.845
-716.819
-716.807
-716.808
-706.499
-706.509
-706.514
-706.518
-706.525
-706.53
-706.529
-706.517
-706.499
-706.493
-706.505
-706.538
-706.577
-706.598
-706.59
-706.564
-706.535
-706.51
-706.497
-706.498
-694.219
-694.228
-694.234
-694.238
-694.244
-694.249
-694.248
-694.238
-694.223
-694.216
-694.225
-694.255
-694.29
-694.311
-694.306
-694.283
-694.256
-694.232
-694.219
-694.219
-680.147
-680.156
-680.162
-680.166
-680.171
-680.176
-680.176
-680.168
-680.155
-680.147
-680.154
-680.179
-680.211
-680.233
-680.231
-680.21
-680.184
-680.162
-680.149
-680.148
-664.459
-664.468
-664.474
-664.478
-664.482
-664.486
-664.488
-664.482
-664.47
-664.462
-664.467
-664.487
-664.517
-664.538
-664.539
-664.521
-664.497
-664.477
-664.463
-664.461
-647.331
-647.339
-647.345
-647.348
-647.352
-647.356
-647.358
-647.354
-647.344
-647.336
-647.338
-647.354
-647.381
-647.402
-647.405
-647.39
-647.369
-647.35
-647.336
-647.333
-628.934
-628.942
-628.947
-628.95
-628.954
-628.957
-628.96
-628.958
-628.95
-628.941
-628.941
-628.953
-628.976
-628.998
-629.004
-628.992
-628.972
-628.955
-628.941
-628.937
-609.439
-609.446
-609.452
-609.455
-609.457
-609.46
-609.464
-609.464
-609.457
-609.448
-609.445
-609.454
-609.474
-609.496
-609.503
-609.495
-609.478
-609.461
-609.447
-609.442
-589.012
-589.018
-589.023
-589.026
-589.028
-589.031
-589.034
-589.036
-589.031
-589.022
-589.017
-589.022
-589.04
-589.06
-589.071
-589.065
-589.05
-589.035
-589.021
-589.015
-567.811
-567.817
-567.822
-567.825
-567.826
-567.829
-567.833
-567.835
-567.832
-567.823
-567.816
-567.818
-567.833
-567.853
-567.865
-567.862
-567.849
-567.835
-567.822
-567.816
-545.993
-545.998
-546.002
-546.005
-546.006
-546.008
-546.012
-546.016
-546.014
-546.005
-545.997
-545.996
-546.008
-546.027
-546.041
-546.04
-546.03
-546.017
-546.005
-545.997
-523.704
-523.708
-523.712
-523.714
-523.715
-523.717
-523.721
-523.726
-523.725
-523.716
-523.706
-523.703
-523.713
-523.731
-523.745
-523.747
-523.739
-523.728
-523.716
-523.708
-501.085
-501.088
-501.092
-501.094
-501.094
-501.096
-501.1
-501.105
-501.106
-501.097
-501.086
-501.081
-501.089
-501.106
-501.121
-501.125
-501.119
-501.109
-501.098
-501.09
-478.273
-478.275
-478.278
-478.279
-478.28
-478.281
-478.285
-478.291
-478.292
-478.284
-478.272
-478.266
-478.272
-478.287
-478.302
-478.308
-478.304
-478.295
-478.285
-478.277
-455.395
-455.396
-455.398
-455.4
-455.4
-455.401
-455.405
-455.41
-455.412
-455.404
-455.392
-455.385
-455.389
-455.403
-455.418
-455.425
-455.423
-455.415
-455.407
-455.399
-432.574
-432.574
-432.576
-432.577
-432.577
-432.578
-432.582
-432.587
-432.589
-432.582
-432.57
-432.562
-432.565
-432.577
-432.592
-432.6
-432.599
-432.593
-432.585
-432.578
-409.929
-409.928
-409.929
-409.93
-409.93
-409.931
-409.934
-409.939
-409.941
-409.935
-409.923
-409.915
-409.917
-409.927
-409.941
-409.95
-409.95
-409.945
-409.939
-409.932
-387.571
-387.569
-387.569
-387.57
-387.57
-387.57
-387.574
-387.578
-387.58
-387.574
-387.563
-387.554
-387.555
-387.565
-387.577
-387.586
-387.588
-387.584
-387.579
-387.572
-365.605
-365.602
-365.603
-365.603
-365.602
-365.603
-365.606
-365.61
-365.611
-365.605
-365.595
-365.587
-365.588
-365.596
-365.607
-365.615
-365.618
-365.615
-365.611
-365.606
-344.132
-344.129
-344.129
-344.128
-344.128
-344.128
-344.131
-344.134
-344.135
-344.13
-344.12
-344.113
-344.113
-344.121
-344.13
-344.137
-344.14
-344.138
-344.136
-344.131
-323.245
-323.242
-323.241
-323.24
-323.24
-323.24
-323.242
-323.245
-323.245
-323.24
-323.231
-323.225
-323.226
-323.232
-323.24
-323.246
-323.249
-323.248
-323.246
-323.243
-303.031
-303.028
-303.026
-303.025
-303.024
-303.024
-303.026
-303.029
-303.029
-303.023
-303.015
-303.01
-303.011
-303.017
-303.024
-303.028
-303.03
-303.03
-303.029
-303.027
-283.567
-283.564
-283.562
-283.561
-283.56
-283.56
-283.561
-283.563
-283.562
-283.557
-283.55
-283.545
-283.547
-283.553
-283.558
-283.561
-283.562
-283.562
-283.562
-283.562
-264.923
-264.92
-264.918
-264.916
-264.915
-264.915
-264.916
-264.918
-264.916
-264.911
-264.904
-264.9
-264.903
-264.91
-264.914
-264.915
-264.914
-264.914
-264.915
-264.915
-247.156
-247.154
-247.152
-247.15
-247.149
-247.148
-247.149
-247.15
-247.149
-247.143
-247.136
-247.134
-247.137
-247.144
-247.148
-247.147
-247.145
-247.144
-247.146
-247.147
-230.315
-230.314
-230.312
-230.31
-230.308
-230.308
-230.308
-230.309
-230.307
-230.301
-230.295
-230.293
-230.297
-230.305
-230.308
-230.306
-230.302
-230.3
-230.302
-230.304
-214.433
-214.434
-214.433
-214.431
-214.428
-214.427
-214.428
-214.428
-214.426
-214.42
-214.413
-214.412
-214.418
-214.425
-214.429
-214.426
-214.42
-214.417
-214.418
-214.421
-199.533
-199.535
-199.535
-199.533
-199.531
-199.529
-199.529
-199.53
-199.527
-199.521
-199.515
-199.514
-199.52
-199.528
-199.533
-199.529
-199.521
-199.516
-199.517
-199.52
-185.622
-185.626
-185.627
-185.625
-185.623
-185.621
-185.621
-185.621
-185.618
-185.612
-185.606
-185.605
-185.612
-185.621
-185.626
-185.622
-185.613
-185.606
-185.605
-185.608
-172.694
-172.699
-172.702
-172.701
-172.698
-172.696
-172.696
-172.696
-172.693
-172.687
-172.68
-172.679
-172.686
-172.697
-172.703
-172.699
-172.689
-172.68
-172.677
-172.68
-160.73
-160.736
-160.74
-160.74
-160.737
-160.735
-160.734
-160.734
-160.731
-160.726
-160.719
-160.718
-160.725
-160.736
-160.743
-160.74
-160.729
-160.718
-160.713
-160.716
-149.695
-149.703
-149.708
-149.709
-149.707
-149.705
-149.704
-149.703
-149.701
-149.695
-149.688
-149.687
-149.693
-149.705
-149.713
-149.712
-149.701
-149.687
-149.681
-149.682
-139.546
-139.555
-139.561
-139.564
-139.563
-139.56
-139.559
-139.558
-139.556
-139.551
-139.544
-139.542
-139.548
-139.56
-139.569
-139.569
-139.559
-139.544
-139.535
-139.534
-130.228
-130.238
-130.246
-130.25
-130.249
-130.247
-130.245
-130.244
-130.242
-130.238
-130.231
-130.228
-130.233
-130.245
-130.256
-130.258
-130.248
-130.233
-130.221
-130.218
-121.68
-121.689
-121.699
-121.704
-121.705
-121.703
-121.701
-121.7
-121.698
-121.694
-121.687
-121.684
-121.688
-121.7
-121.712
-121.715
-121.707
-121.691
-121.677
-121.672
-113.834
-113.843
-113.853
-113.859
-113.862
-113.86
-113.858
-113.857
-113.855
-113.852
-113.846
-113.842
-113.845
-113.855
-113.868
-113.874
-113.868
-113.852
-113.836
-113.828
-106.62
-106.628
-106.638
-106.647
-106.65
-106.65
-106.648
-106.646
-106.645
-106.641
-106.636
-106.632
-106.633
-106.643
-106.656
-106.664
-106.66
-106.646
-106.628
-106.617
-99.9692
-99.9757
-99.9864
-99.9955
-100
-100.001
-99.9997
-99.998
-99.9964
-99.9936
-99.9888
-99.9842
-99.9847
-99.993
-100.006
-100.016
-100.015
-100.002
-99.9837
-99.9702
-93.8155
-93.8198
-93.8299
-93.8399
-93.8462
-93.8481
-93.8473
-93.8457
-93.8441
-93.8417
-93.8374
-93.8328
-93.8321
-93.839
-93.8517
-93.8629
-93.8643
-93.8534
-93.8356
-93.82
-88.0971
-88.0988
-88.1078
-88.1182
-88.1258
-88.129
-88.1289
-88.1275
-88.126
-88.1239
-88.1202
-88.1157
-88.1141
-88.1194
-88.1312
-88.1433
-88.1474
-88.1392
-88.1222
-88.105
-82.7593
-82.758
-82.7652
-82.7756
-82.7842
-82.7888
-82.7897
-82.7887
-82.7873
-82.7854
-82.7822
-82.7779
-82.7756
-82.7793
-82.7898
-82.8025
-82.809
-82.8037
-82.7883
-82.7703
-77.7548
-77.7504
-77.7554
-77.7651
-77.7745
-77.7803
-77.7823
-77.7819
-77.7807
-77.7791
-77.7764
-77.7724
-77.7695
-77.7717
-77.7807
-77.7934
-77.8019
-77.7998
-77.7865
-77.7684
-73.0448
-73.0373
-73.0396
-73.0481
-73.0577
-73.0647
-73.0678
-73.0682
-73.0673
-73.0659
-73.0637
-73.0601
-73.0569
-73.0577
-73.065
-73.0772
-73.0873
-73.0883
-73.0777
-73.0603
-68.598
-68.5877
-68.587
-68.5937
-68.6031
-68.611
-68.6153
-68.6166
-68.6161
-68.6151
-68.6132
-68.6101
-68.6067
-68.6063
-68.612
-68.6231
-68.6344
-68.6381
-68.6306
-68.6146
-64.3906
-64.3779
-64.3741
-64.3786
-64.3872
-64.3956
-64.401
-64.4033
-64.4034
-64.4027
-64.4012
-64.3985
-64.3952
-64.3939
-64.3978
-64.4077
-64.4194
-64.4256
-64.4214
-64.4075
-60.4045
-60.3901
-60.3834
-60.3852
-60.3926
-60.401
-60.4074
-60.4106
-60.4115
-60.4112
-60.4101
-60.4079
-60.4047
-60.4026
-60.405
-60.4134
-60.425
-60.4332
-60.4322
-60.4209
-56.6266
-56.6112
-56.6018
-56.6009
-56.6064
-56.6144
-56.6214
-56.6256
-56.6273
-56.6276
-56.6269
-56.6251
-56.6222
-56.6197
-56.6207
-56.6274
-56.6383
-56.648
-56.6499
-56.6416
-53.0467
-53.0311
-53.0196
-53.0158
-53.0192
-53.0263
-53.0336
-53.0386
-53.0412
-53.042
-53.0418
-53.0404
-53.0379
-53.0351
-53.035
-53.04
-53.05
-53.0604
-53.0649
-53.0598
-49.6569
-49.6418
-49.6288
-49.6224
-49.6233
-49.6291
-49.6362
-49.6419
-49.6453
-49.6468
-49.647
-49.6461
-49.644
-49.6412
-49.6402
-49.6436
-49.6522
-49.6628
-49.6694
-49.6674
-46.4498
-46.436
-46.4222
-46.4135
-46.4119
-46.416
-46.4225
-46.4285
-46.4327
-46.4348
-46.4356
-46.4352
-46.4335
-46.4309
-46.4292
-46.4312
-46.4383
-46.4485
-46.4567
-46.4575
-43.4185
-43.4066
-43.3927
-43.3823
-43.3782
-43.3802
-43.3857
-43.3918
-43.3965
-43.3993
-43.4007
-43.4008
-43.3996
-43.3972
-43.3951
-43.3959
-43.4014
-43.4108
-43.4199
-43.4232
-40.5554
-40.5459
-40.5327
-40.5212
-40.5149
-40.5147
-40.5189
-40.5245
-40.5296
-40.533
-40.5349
-40.5355
-40.5348
-40.5328
-40.5306
-40.5304
-40.5343
-40.5426
-40.5519
-40.5573
-37.8528
-37.8459
-37.834
-37.822
-37.814
-37.8117
-37.8141
-37.8191
-37.8242
-37.8281
-37.8305
-37.8316
-37.8315
-37.8299
-37.8277
-37.8267
-37.8293
-37.8362
-37.8452
-37.852
-35.3022
-35.298
-35.288
-35.2763
-35.267
-35.2627
-35.2634
-35.2672
-35.2721
-35.2762
-35.2791
-35.2808
-35.2811
-35.28
-35.278
-35.2765
-35.2779
-35.2833
-35.2917
-35.2993
-32.8953
-32.8936
-32.8858
-32.8749
-32.865
-32.8591
-32.8579
-32.8605
-32.8647
-32.8689
-32.8722
-32.8742
-32.875
-32.8745
-32.8728
-32.8711
-32.8714
-32.8754
-32.8828
-32.8906
-30.6233
-30.6239
-30.6185
-30.609
-30.5991
-30.5919
-30.589
-30.5901
-30.5935
-30.5975
-30.6009
-30.6034
-30.6046
-30.6046
-30.6032
-30.6015
-30.6011
-30.6037
-30.6099
-30.6175
-28.4779
-28.4804
-28.4773
-28.4696
-28.4602
-28.4524
-28.4481
-28.4477
-28.45
-28.4535
-28.4569
-28.4596
-28.4613
-28.4617
-28.4608
-28.4592
-28.4582
-28.4597
-28.4645
-28.4715
-26.4511
-26.4549
-26.454
-26.4483
-26.44
-26.432
-26.4266
-26.4248
-26.426
-26.4288
-26.432
-26.4348
-26.4367
-26.4376
-26.4371
-26.4357
-26.4345
-26.435
-26.4386
-26.4446
-24.5353
-24.54
-24.5409
-24.5372
-24.5304
-24.5227
-24.5167
-24.5137
-24.5136
-24.5156
-24.5184
-24.5211
-24.5233
-24.5244
-24.5244
-24.5233
-24.522
-24.5218
-24.5241
-24.5291
-22.7232
-22.7282
-22.7306
-22.7289
-22.7237
-22.7169
-22.7107
-22.7068
-22.7056
-22.7066
-22.7088
-22.7113
-22.7135
-22.7149
-22.7153
-22.7146
-22.7133
-22.7126
-22.7138
-22.7176
-21.0081
-21.0131
-21.0164
-21.0165
-21.013
-21.0073
-21.0014
-20.9969
-20.9948
-20.9948
-20.9963
-20.9985
-21.0006
-21.0022
-21.0028
-21.0025
-21.0013
-21.0003
-21.0007
-21.0034
-19.3836
-19.3882
-19.3921
-19.3935
-19.3917
-19.3874
-19.3822
-19.3776
-19.3747
-19.3739
-19.3746
-19.3762
-19.3781
-19.3797
-19.3806
-19.3805
-19.3796
-19.3785
-19.3783
-19.3798
-17.8436
-17.8476
-17.8516
-17.854
-17.8537
-17.8509
-17.8466
-17.8422
-17.839
-17.8374
-17.8374
-17.8384
-17.84
-17.8415
-17.8425
-17.8427
-17.842
-17.8409
-17.8402
-17.8409
-16.3823
-16.3855
-16.3893
-16.3923
-16.3933
-16.3919
-16.3887
-16.3849
-16.3815
-16.3795
-16.3788
-16.3792
-16.3803
-16.3816
-16.3826
-16.383
-16.3825
-16.3815
-16.3805
-16.3805
-14.994
-14.9964
-14.9998
-15.0031
-15.0049
-15.0048
-15.0028
-14.9998
-14.9967
-14.9943
-14.9931
-14.993
-14.9936
-14.9946
-14.9955
-14.996
-14.9957
-14.9948
-14.9937
-14.9931
-13.6735
-13.675
-13.6778
-13.681
-13.6835
-13.6844
-13.6836
-13.6814
-13.6788
-13.6764
-13.6749
-13.6742
-13.6744
-13.675
-13.6757
-13.6762
-13.6761
-13.6753
-13.6742
-13.6732
-12.4153
-12.4161
-12.4182
-12.4211
-12.4238
-12.4255
-12.4257
-12.4246
-12.4226
-12.4204
-12.4187
-12.4177
-12.4174
-12.4177
-12.4182
-12.4186
-12.4185
-12.4179
-12.4168
-12.4156
-11.2144
-11.2146
-11.216
-11.2184
-11.2211
-11.2233
-11.2244
-11.2242
-11.2229
-11.2212
-11.2195
-11.2183
-11.2177
-11.2176
-11.2178
-11.218
-11.218
-11.2175
-11.2164
-11.2152
-10.0659
-10.0656
-10.0663
-10.0682
-10.0707
-10.0731
-10.0748
-10.0754
-10.0749
-10.0737
-10.0722
-10.071
-10.0701
-10.0697
-10.0696
-10.0697
-10.0696
-10.0691
-10.0682
-10.0669
-8.96486
-8.96415
-8.96437
-8.96567
-8.96781
-8.97021
-8.97225
-8.97346
-8.97367
-8.97305
-8.97196
-8.97078
-8.96979
-8.96916
-8.96885
-8.96874
-8.96858
-8.96813
-8.96725
-8.966
-7.90658
-7.90563
-7.90541
-7.90619
-7.90788
-7.91009
-7.91226
-7.91389
-7.91468
-7.91463
-7.91396
-7.91298
-7.91201
-7.91124
-7.91075
-7.91046
-7.91019
-7.90974
-7.90894
-7.90777
-6.88639
-6.88532
-6.88479
-6.88512
-6.88635
-6.88824
-6.89036
-6.8922
-6.8934
-6.89383
-6.89359
-6.89289
-6.89203
-6.89123
-6.89062
-6.89018
-6.88982
-6.88936
-6.88863
-6.88755
-5.89969
-5.89861
-5.89791
-5.89789
-5.89869
-5.90021
-5.90212
-5.90398
-5.90541
-5.9062
-5.90633
-5.90593
-5.90525
-5.9045
-5.90384
-5.90332
-5.90288
-5.9024
-5.90173
-5.90077
-4.94197
-4.94097
-4.9402
-4.93996
-4.94041
-4.94155
-4.94316
-4.94487
-4.94635
-4.94734
-4.94774
-4.94762
-4.94714
-4.9465
-4.94586
-4.9453
-4.94483
-4.94435
-4.94375
-4.94292
-4.00874
-4.00789
-4.00717
-4.00683
-4.00705
-4.00785
-4.00911
-4.01057
-4.01193
-4.01295
-4.01349
-4.01355
-4.01325
-4.01273
-4.01216
-4.01163
-4.01116
-4.01072
-4.0102
-4.00951
-3.09557
-3.09493
-3.09437
-3.09406
-3.09415
-3.0947
-3.09563
-3.09677
-3.09789
-3.09877
-3.09929
-3.09942
-3.09922
-3.09881
-3.09832
-3.09785
-3.09743
-3.09705
-3.09665
-3.09613
-2.19809
-2.19772
-2.1974
-2.19724
-2.19735
-2.19775
-2.19841
-2.19922
-2.2
-2.20062
-2.20096
-2.20101
-2.2008
-2.20044
-2.20001
-2.19961
-2.19927
-2.19898
-2.19872
-2.1984
-1.31202
-1.31197
-1.31198
-1.31209
-1.31233
-1.31272
-1.31321
-1.31372
-1.31414
-1.31438
-1.31441
-1.31421
-1.31386
-1.31343
-1.31301
-1.31266
-1.3124
-1.31223
-1.31214
-1.31204
-0.433215
-0.433552
-0.433957
-0.43443
-0.434949
-0.435464
-0.435903
-0.436188
-0.436254
-0.436072
-0.43566
-0.435081
-0.43443
-0.433804
-0.433283
-0.432918
-0.43272
-0.432679
-0.432766
-0.432927
0.442232
0.441476
0.440608
0.439673
0.438755
0.43797
0.437437
0.437259
0.437488
0.438108
0.439033
0.440129
0.441237
0.442217
0.442968
0.443442
0.443635
0.443575
0.4433
0.442866
1.31792
1.31671
1.31532
1.31384
1.31241
1.31121
1.31043
1.31021
1.31064
1.31166
1.31313
1.31484
1.31655
1.31805
1.31919
1.3199
1.32018
1.32007
1.31963
1.31892
2.19695
2.19526
2.19331
2.19121
2.18915
2.1874
2.18621
2.18581
2.18629
2.18763
2.18963
2.19202
2.19445
2.19663
2.19832
2.19943
2.19992
2.19985
2.19929
2.19833
3.08173
3.07955
3.07699
3.07421
3.07144
3.06901
3.06726
3.06648
3.06687
3.0684
3.07088
3.07396
3.07719
3.08019
3.08261
3.08428
3.08515
3.08524
3.08464
3.08346
3.97364
3.97098
3.9678
3.96429
3.96073
3.9575
3.95504
3.95372
3.95383
3.95541
3.95826
3.96198
3.96607
3.96999
3.97331
3.97573
3.97713
3.97753
3.97701
3.97569
4.87267
4.86956
4.86577
4.86151
4.8571
4.85298
4.84966
4.84764
4.84728
4.84871
4.85179
4.85609
4.86103
4.86595
4.87029
4.87363
4.87576
4.87663
4.87633
4.87498
5.77692
5.77342
5.76905
5.76403
5.75873
5.75363
5.74934
5.74645
5.74544
5.74654
5.74967
5.75442
5.76015
5.7661
5.77156
5.77598
5.77902
5.78056
5.78064
5.77939
6.68192
6.67812
6.67322
6.66747
6.66126
6.65514
6.64978
6.64588
6.64404
6.64461
6.64759
6.65263
6.65905
6.66601
6.67265
6.67827
6.68239
6.68478
6.68542
6.68443
7.57985
7.57587
7.57051
7.56408
7.55699
7.54983
7.54334
7.53832
7.53548
7.53531
7.53794
7.54308
7.55005
7.55793
7.56576
7.57267
7.578
7.58142
7.58281
7.58224
8.45857
8.45455
8.44886
8.44184
8.43392
8.42573
8.41808
8.41185
8.40788
8.4068
8.40887
8.41388
8.42122
8.42991
8.43887
8.44709
8.45375
8.45834
8.46065
8.46069
9.30057
9.29666
9.29079
9.28328
9.27462
9.26547
9.25668
9.2492
9.24401
9.24187
9.24317
9.24784
9.25532
9.26464
9.27463
9.28413
9.29215
9.29803
9.30141
9.30224
10.0818
10.0782
10.0723
10.0644
10.0552
10.0452
10.0353
10.0266
10.0201
10.0168
10.0172
10.0213
10.0287
10.0384
10.0492
10.0599
10.0693
10.0765
10.0811
10.0828
10.7706
10.7674
10.7617
10.7537
10.744
10.7333
10.7225
10.7126
10.7049
10.7004
10.6996
10.703
10.7101
10.7199
10.7314
10.7431
10.7537
10.7623
10.7681
10.7709
11.3272
11.3247
11.3193
11.3113
11.3014
11.2902
11.2786
11.2678
11.2589
11.2532
11.2513
11.2537
11.2602
11.27
11.2818
11.2943
11.306
11.3157
11.3228
11.3266
11.7041
11.7023
11.6974
11.6897
11.6798
11.6684
11.6563
11.6447
11.6348
11.628
11.625
11.6263
11.6321
11.6415
11.6533
11.6662
11.6787
11.6895
11.6977
11.7026
11.8479
11.8469
11.8426
11.8354
11.8258
11.8144
11.8021
11.79
11.7795
11.7717
11.7676
11.7679
11.7727
11.7814
11.793
11.806
11.819
11.8305
11.8395
11.8454
11.7041
11.7039
11.7004
11.6938
11.6847
11.6737
11.6616
11.6494
11.6385
11.63
11.6251
11.6244
11.6281
11.636
11.6469
11.6596
11.6726
11.6845
11.6941
11.7008
11.226
11.2265
11.2238
11.2181
11.2098
11.1994
11.1879
11.176
11.1651
11.1563
11.1508
11.1492
11.1519
11.1587
11.1687
11.1807
11.1932
11.205
11.2149
11.2221
10.388
10.3892
10.3873
10.3825
10.3751
10.3658
10.3551
10.344
10.3336
10.3249
10.3191
10.3168
10.3186
10.3242
10.3329
10.3438
10.3555
10.3668
10.3764
10.3837
9.20265
9.20428
9.2031
9.19925
9.19304
9.18492
9.17549
9.16553
9.156
9.14788
9.14214
9.13953
9.14043
9.14481
9.15216
9.16159
9.172
9.18223
9.19124
9.19824
7.6697
7.67157
7.67102
7.66815
7.66319
7.65652
7.64864
7.6402
7.63198
7.62484
7.61958
7.61688
7.6171
7.62029
7.62607
7.63377
7.64249
7.65125
7.65916
7.66549
5.94731
5.94918
5.94911
5.94713
5.94343
5.93828
5.9321
5.92538
5.91876
5.91289
5.90844
5.90594
5.90572
5.90785
5.9121
5.91797
5.92479
5.9318
5.93827
5.9436
4.32215
4.32381
4.324
4.32272
4.32011
4.31636
4.31179
4.30676
4.30175
4.29725
4.29376
4.29167
4.29125
4.29259
4.29553
4.29975
4.30476
4.31001
4.31496
4.31913
2.92168
2.92299
2.92326
2.9225
2.92078
2.91823
2.91507
2.91157
2.90806
2.90487
2.90235
2.90078
2.90035
2.90113
2.90304
2.90586
2.90928
2.91293
2.91643
2.91944
1.79891
1.79981
1.80006
1.79964
1.7986
1.79702
1.79504
1.79283
1.7906
1.78856
1.78693
1.78589
1.78555
1.78597
1.7871
1.78883
1.79095
1.79324
1.79547
1.79742
0.946631
0.947142
0.947304
0.947107
0.946568
0.945737
0.944685
0.943505
0.942309
0.941212
0.940327
0.939751
0.939549
0.939746
0.940324
0.94122
0.942338
0.94356
0.944759
0.945813
0.324031
0.324207
0.324265
0.3242
0.324019
0.323739
0.323384
0.322985
0.322582
0.322212
0.321914
0.321719
0.32165
0.321716
0.321909
0.322209
0.322585
0.322996
0.323401
0.323754
-0.111882
-0.111969
-0.112006
-0.111992
-0.111926
-0.111816
-0.111672
-0.111506
-0.111334
-0.111173
-0.11104
-0.110947
-0.110904
-0.110917
-0.110983
-0.111096
-0.111245
-0.111413
-0.111585
-0.111751
-0.404794
-0.405069
-0.40518
-0.405117
-0.404888
-0.404514
-0.404028
-0.403476
-0.402911
-0.402386
-0.401955
-0.401661
-0.401537
-0.401596
-0.401832
-0.40222
-0.402721
-0.403283
-0.403851
-0.404376
-0.594157
-0.594556
-0.594716
-0.594624
-0.59429
-0.593744
-0.593037
-0.592234
-0.591413
-0.590653
-0.59003
-0.589608
-0.589432
-0.589519
-0.589863
-0.590427
-0.591154
-0.591969
-0.592793
-0.593551
-0.707941
-0.708412
-0.7086
-0.708489
-0.70809
-0.707439
-0.706599
-0.705648
-0.704676
-0.703778
-0.703044
-0.702549
-0.702344
-0.702451
-0.70286
-0.703529
-0.704389
-0.705355
-0.706329
-0.707225
-0.76694
-0.767444
-0.767642
-0.767517
-0.767081
-0.766376
-0.765467
-0.764441
-0.763395
-0.762431
-0.761646
-0.761119
-0.760905
-0.761026
-0.761471
-0.762194
-0.763122
-0.764161
-0.76521
-0.766172
-0.786549
-0.787057
-0.787252
-0.787116
-0.786665
-0.78594
-0.785008
-0.78396
-0.782895
-0.781917
-0.781124
-0.780595
-0.780385
-0.780517
-0.780977
-0.781719
-0.782667
-0.783727
-0.784795
-0.785771
-0.778064
-0.778555
-0.778737
-0.778594
-0.778141
-0.777421
-0.7765
-0.775467
-0.774422
-0.773466
-0.772694
-0.772184
-0.771988
-0.772128
-0.772588
-0.773324
-0.77426
-0.775303
-0.77635
-0.777305
-0.74975
-0.750211
-0.750374
-0.750227
-0.749783
-0.749084
-0.748197
-0.747206
-0.746206
-0.745296
-0.744566
-0.744088
-0.743913
-0.744058
-0.744508
-0.74522
-0.746121
-0.747121
-0.748122
-0.749032
-0.707677
-0.708099
-0.708242
-0.708092
-0.707664
-0.707
-0.706161
-0.705229
-0.704293
-0.703445
-0.702769
-0.702332
-0.70218
-0.702327
-0.702761
-0.703437
-0.704287
-0.705227
-0.706164
-0.707012
-0.656329
-0.656708
-0.656827
-0.656677
-0.656272
-0.65565
-0.654871
-0.654009
-0.653148
-0.652371
-0.651756
-0.651365
-0.651237
-0.651385
-0.651796
-0.652428
-0.653217
-0.654085
-0.654948
-0.655724
-0.599043
-0.599376
-0.599473
-0.599325
-0.598946
-0.598373
-0.59766
-0.596875
-0.596094
-0.595394
-0.594845
-0.5945
-0.594396
-0.594543
-0.594927
-0.595509
-0.596231
-0.597021
-0.597802
-0.598501
-0.538325
-0.538613
-0.538688
-0.538545
-0.538196
-0.537675
-0.537031
-0.536327
-0.53563
-0.535009
-0.534526
-0.534228
-0.534146
-0.534289
-0.534643
-0.535172
-0.535823
-0.536532
-0.537228
-0.537849
-0.47608
-0.476324
-0.47638
-0.476243
-0.475926
-0.47546
-0.474888
-0.474266
-0.473653
-0.473111
-0.472692
-0.472439
-0.472378
-0.472514
-0.472836
-0.473309
-0.473888
-0.474514
-0.475126
-0.475668
-0.413772
-0.413975
-0.414015
-0.413886
-0.413603
-0.413192
-0.412692
-0.412151
-0.411622
-0.411156
-0.4108
-0.410589
-0.410546
-0.410674
-0.410961
-0.411378
-0.411884
-0.412429
-0.412958
-0.413422
-0.352546
-0.352711
-0.352736
-0.352618
-0.35237
-0.352015
-0.351586
-0.351124
-0.350675
-0.350283
-0.349986
-0.349815
-0.349786
-0.349904
-0.350156
-0.350517
-0.350951
-0.351415
-0.351864
-0.352254
-0.293309
-0.29344
-0.293453
-0.293349
-0.293136
-0.292836
-0.292476
-0.292092
-0.29172
-0.291397
-0.291156
-0.29102
-0.291003
-0.291108
-0.291324
-0.29163
-0.291994
-0.29238
-0.292752
-0.293073
-0.2368
-0.236899
-0.236904
-0.236814
-0.236637
-0.236391
-0.236098
-0.235787
-0.235488
-0.23523
-0.23504
-0.234936
-0.234929
-0.23502
-0.2352
-0.23545
-0.235747
-0.23606
-0.236358
-0.236614
-0.183626
-0.183699
-0.183698
-0.183623
-0.183482
-0.183288
-0.183059
-0.182817
-0.182586
-0.182389
-0.182245
-0.182168
-0.182168
-0.182243
-0.182387
-0.182585
-0.182817
-0.18306
-0.18329
-0.183486
-0.134303
-0.134353
-0.134349
-0.134291
-0.134184
-0.13404
-0.133871
-0.133694
-0.133526
-0.133383
-0.133281
-0.133228
-0.133231
-0.13329
-0.133399
-0.133546
-0.133717
-0.133895
-0.134063
-0.134204
-0.0892706
-0.0893013
-0.0892959
-0.089255
-0.0891824
-0.0890851
-0.0889721
-0.0888544
-0.0887434
-0.0886499
-0.0885835
-0.088551
-0.0885557
-0.0885974
-0.0886717
-0.0887713
-0.088886
-0.0890044
-0.0891148
-0.0892066
-0.0489095
-0.0489249
-0.0489205
-0.0488969
-0.0488563
-0.0488025
-0.0487405
-0.0486763
-0.0486162
-0.048566
-0.0485309
-0.0485145
-0.0485185
-0.0485426
-0.0485844
-0.0486396
-0.0487027
-0.0487673
-0.048827
-0.0488759
-0.0135494
-0.0135531
-0.0135516
-0.013545
-0.0135339
-0.0135194
-0.0135028
-0.0134857
-0.0134698
-0.0134566
-0.0134476
-0.0134436
-0.0134451
-0.0134519
-0.0134635
-0.0134785
-0.0134954
-0.0135127
-0.0135284
-0.0135409
0.0165295
0.0165339
0.0165313
0.0165218
0.0165065
0.0164868
0.0164644
0.0164414
0.0164202
0.0164028
0.016391
0.0163861
0.0163886
0.0163982
0.0164141
0.0164344
0.0164572
0.0164802
0.0165011
0.0165183
0.0411
0.0411091
0.0411014
0.0410775
0.0410397
0.0409915
0.0409372
0.040882
0.0408313
0.0407901
0.0407628
0.0407522
0.0407597
0.0407844
0.0408239
0.0408739
0.0409295
0.0409848
0.0410346
0.0410745
0.0599966
0.0600076
0.0599944
0.0599584
0.0599028
0.0598328
0.0597545
0.0596754
0.0596033
0.0595453
0.0595076
0.0594945
0.0595074
0.0595451
0.0596037
0.059677
0.0597574
0.0598366
0.059907
0.0599623
0.0731336
0.0731436
0.0731251
0.0730801
0.0730123
0.0729278
0.0728342
0.0727401
0.0726548
0.0725871
0.0725442
0.0725311
0.0725494
0.0725973
0.0726699
0.0727591
0.0728558
0.0729499
0.0730323
0.0730956
0.0805305
0.0805376
0.0805148
0.0804643
0.0803904
0.0802995
0.0801994
0.0800995
0.0800096
0.079939
0.0798957
0.0798848
0.0799078
0.0799626
0.0800431
0.0801404
0.0802443
0.0803439
0.0804296
0.0804938
0.0823523
0.082355
0.0823292
0.0822775
0.082204
0.0821147
0.0820171
0.0819203
0.0818338
0.0817669
0.0817274
0.0817203
0.0817469
0.0818045
0.0818865
0.0819839
0.0820858
0.0821817
0.0822624
0.082321
0.0789616
0.0789594
0.0789328
0.0788841
0.0788171
0.0787369
0.07865
0.0785642
0.0784882
0.0784305
0.0783982
0.0783959
0.0784244
0.0784806
0.0785579
0.0786473
0.0787389
0.0788228
0.0788913
0.0789388
0.0709849
0.0709782
0.070953
0.0709114
0.0708562
0.070791
0.070721
0.0706523
0.0705921
0.0705476
0.070525
0.0705276
0.0705559
0.0706067
0.0706736
0.0707484
0.0708225
0.0708881
0.0709392
0.070972
0.059379
0.0593693
0.0593479
0.0593162
0.059276
0.0592293
0.0591796
0.0591313
0.0590897
0.0590604
0.0590481
0.0590552
0.0590813
0.0591232
0.0591754
0.059231
0.0592834
0.0593271
0.0593584
0.0593757
0.0454751
0.0454646
0.0454487
0.0454281
0.0454033
0.0453753
0.0453457
0.0453174
0.0452941
0.0452795
0.0452766
0.0452867
0.0453089
0.0453399
0.0453754
0.0454102
0.0454401
0.0454622
0.0454752
0.045479
0.0309565
0.0309476
0.0309379
0.0309274
0.0309158
0.030903
0.0308898
0.0308777
0.0308689
0.0308658
0.0308699
0.0308811
0.030898
0.0309178
0.0309374
0.0309536
0.0309645
0.0309694
0.0309688
0.0309638
0.0177258
0.0177202
0.017716
0.0177127
0.0177096
0.0177063
0.0177031
0.0177009
0.017701
0.0177044
0.0177114
0.0177213
0.0177325
0.0177428
0.0177501
0.0177533
0.0177522
0.0177474
0.0177404
0.0177326
0.00761774
0.00761557
0.00761481
0.00761491
0.00761527
0.00761561
0.00761611
0.00761735
0.00762001
0.00762444
0.00763039
0.00763694
0.00764272
0.00764642
0.00764715
0.00764479
0.00763992
0.00763363
0.00762718
0.00762158
0.00191288
0.00191261
0.0019129
0.00191343
0.00191396
0.0019144
0.00191489
0.00191574
0.00191722
0.00191942
0.00192208
0.00192467
0.00192655
0.00192721
0.00192645
0.00192443
0.00192161
0.00191859
0.0019159
0.00191391
0.00204784
0.00204839
0.00204979
0.00205129
0.00205235
0.00205291
0.00205348
0.00205494
0.002058
0.00206274
0.00206837
0.0020735
0.00207663
0.00207679
0.00207388
0.00206865
0.00206237
0.00205637
0.00205165
0.00204878
0.00922542
0.00923567
0.00925058
0.00926344
0.00926917
0.00926747
0.00926407
0.00926847
0.00928859
0.00932542
0.00937113
0.00941199
0.00943446
0.00943107
0.00940311
0.00935918
0.00931098
0.00926896
0.00923967
0.00922553
0.00449764
0.00450877
0.00452302
0.00453445
0.00453748
0.00453092
0.00452041
0.00451631
0.00452767
0.00455611
0.00459385
0.00462735
0.00464409
0.00463841
0.00461332
0.00457797
0.00454283
0.00451546
0.00449905
0.00449358
-0.0326348
-0.0327392
-0.032878
-0.0329928
-0.0330227
-0.0329499
-0.0328294
-0.03277
-0.0328684
-0.0331437
-0.0335159
-0.0338461
-0.0340082
-0.0339485
-0.033702
-0.0333635
-0.0330359
-0.0327885
-0.0326444
-0.032598
-0.0360193
-0.0361351
-0.0362892
-0.0364167
-0.0364499
-0.0363687
-0.0362342
-0.0361671
-0.0362754
-0.0365802
-0.0369928
-0.0373589
-0.0375386
-0.0374722
-0.0371989
-0.0368239
-0.0364614
-0.0361881
-0.0360292
-0.0359782
-0.0360405
-0.0361563
-0.0363105
-0.0364381
-0.0364713
-0.0363901
-0.0362555
-0.0361883
-0.0362967
-0.0366017
-0.0370146
-0.0373809
-0.0375606
-0.0374942
-0.0372208
-0.0368455
-0.0364828
-0.0362093
-0.0360503
-0.0359993
-0.0360406
-0.0361564
-0.0363105
-0.0364382
-0.0364714
-0.0363902
-0.0362556
-0.0361884