/*--------------------------------*- C++ -*----------------------------------*\
  =========                 |
  \\      /  F ield         | OpenFOAM: The Open Source CFD Toolbox
   \\    /   O peration     | Website:  https://openfoam.org
    \\  /    A nd           | Version:  6
     \\/     M anipulation  |
\*---------------------------------------------------------------------------*/
FoamFile
{
    version     2.0;
    format      ascii;
    class       volScalarField;
    location    "19.44";
    object      ddt0(k);
}
// * * * * * * * * * * * * * * * * * * * * * * * * * * * * * * * * * * * * * //

dimensions      [0 2 -3 0 0 0 0];

internalField   nonuniform List<scalar> 
3240
(
-0.00144184
-0.00144186
-0.00144187
-0.00144187
-0.00144185
-0.00144182
-0.0014418
-0.0014418
-0.00144183
-0.00144188
-0.00144195
-0.00144201
-0.00144203
-0.00144198
-0.0014419
-0.00144183
-0.00144179
-0.00144177
-0.00144179
-0.00144181
-0.00337065
-0.00337069
-0.00337071
-0.0033707
-0.00337066
-0.00337059
-0.00337054
-0.00337054
-0.00337061
-0.00337074
-0.0033709
-0.00337104
-0.00337108
-0.00337098
-0.0033708
-0.00337063
-0.00337052
-0.00337049
-0.00337052
-0.00337056
-0.00473854
-0.00473861
-0.00473863
-0.00473862
-0.00473856
-0.00473847
-0.0047384
-0.0047384
-0.00473848
-0.00473867
-0.0047389
-0.0047391
-0.00473916
-0.00473902
-0.00473876
-0.00473852
-0.00473837
-0.00473832
-0.00473836
-0.00473842
-0.00575665
-0.00575673
-0.00575676
-0.00575675
-0.00575667
-0.00575657
-0.00575648
-0.00575648
-0.00575658
-0.00575681
-0.00575708
-0.00575732
-0.0057574
-0.00575724
-0.00575693
-0.00575663
-0.00575645
-0.00575638
-0.00575643
-0.00575651
-0.00654046
-0.00654055
-0.00654059
-0.00654058
-0.00654049
-0.00654037
-0.00654028
-0.00654027
-0.00654038
-0.00654063
-0.00654094
-0.00654122
-0.00654131
-0.00654114
-0.00654079
-0.00654045
-0.00654024
-0.00654016
-0.00654021
-0.00654029
-0.00715915
-0.00715925
-0.0071593
-0.00715928
-0.00715919
-0.00715906
-0.00715895
-0.00715894
-0.00715906
-0.00715934
-0.00715967
-0.00715997
-0.00716008
-0.0071599
-0.00715952
-0.00715915
-0.00715892
-0.00715882
-0.00715888
-0.00715897
-0.00765698
-0.00765709
-0.00765714
-0.00765712
-0.00765703
-0.00765689
-0.00765678
-0.00765676
-0.00765689
-0.00765718
-0.00765753
-0.00765785
-0.00765797
-0.00765779
-0.0076574
-0.007657
-0.00765674
-0.00765664
-0.00765669
-0.00765678
-0.00806371
-0.00806383
-0.00806388
-0.00806386
-0.00806376
-0.00806361
-0.0080635
-0.00806348
-0.00806361
-0.00806391
-0.00806427
-0.00806461
-0.00806475
-0.00806457
-0.00806416
-0.00806374
-0.00806346
-0.00806335
-0.0080634
-0.0080635
-0.00840011
-0.00840024
-0.00840029
-0.00840028
-0.00840017
-0.00840002
-0.0083999
-0.00839989
-0.00840001
-0.00840031
-0.00840069
-0.00840105
-0.00840119
-0.00840102
-0.00840061
-0.00840016
-0.00839987
-0.00839974
-0.00839979
-0.00839989
-0.00868117
-0.00868131
-0.00868136
-0.00868135
-0.00868124
-0.00868109
-0.00868096
-0.00868095
-0.00868107
-0.00868138
-0.00868176
-0.00868213
-0.00868229
-0.00868213
-0.0086817
-0.00868124
-0.00868094
-0.0086808
-0.00868084
-0.00868094
-0.00891795
-0.00891809
-0.00891816
-0.00891814
-0.00891804
-0.00891787
-0.00891775
-0.00891773
-0.00891785
-0.00891816
-0.00891855
-0.00891892
-0.0089191
-0.00891895
-0.00891852
-0.00891805
-0.00891773
-0.00891758
-0.00891762
-0.00891772
-0.00911881
-0.00911895
-0.00911902
-0.00911901
-0.0091189
-0.00911874
-0.00911861
-0.00911859
-0.00911871
-0.00911901
-0.00911941
-0.00911979
-0.00911997
-0.00911984
-0.00911942
-0.00911893
-0.0091186
-0.00911844
-0.00911847
-0.00911857
-0.00934134
-0.00934149
-0.00934156
-0.00934155
-0.00934144
-0.00934128
-0.00934114
-0.00934112
-0.00934124
-0.00934154
-0.00934193
-0.00934232
-0.00934252
-0.00934241
-0.00934199
-0.0093415
-0.00934114
-0.00934097
-0.00934099
-0.00934109
-0.00956221
-0.00956237
-0.00956245
-0.00956244
-0.00956233
-0.00956216
-0.00956203
-0.00956201
-0.00956212
-0.00956241
-0.0095628
-0.00956319
-0.00956341
-0.00956332
-0.00956292
-0.00956242
-0.00956204
-0.00956185
-0.00956186
-0.00956195
-0.00974472
-0.00974488
-0.00974497
-0.00974496
-0.00974486
-0.00974469
-0.00974455
-0.00974453
-0.00974464
-0.00974491
-0.00974529
-0.00974568
-0.00974593
-0.00974587
-0.0097455
-0.00974499
-0.00974459
-0.00974437
-0.00974436
-0.00974445
-0.00989389
-0.00989406
-0.00989415
-0.00989416
-0.00989405
-0.00989388
-0.00989374
-0.00989372
-0.00989382
-0.00989407
-0.00989444
-0.00989484
-0.0098951
-0.00989509
-0.00989474
-0.00989422
-0.0098938
-0.00989357
-0.00989354
-0.00989362
-0.0100138
-0.010014
-0.0100141
-0.0100141
-0.010014
-0.0100139
-0.0100137
-0.0100137
-0.0100138
-0.010014
-0.0100144
-0.0100148
-0.010015
-0.0100151
-0.0100148
-0.0100142
-0.0100138
-0.0100135
-0.0100135
-0.0100136
-0.0101079
-0.0101081
-0.0101082
-0.0101082
-0.0101081
-0.010108
-0.0101078
-0.0101078
-0.0101079
-0.0101081
-0.0101084
-0.0101088
-0.0101091
-0.0101092
-0.0101089
-0.0101084
-0.010108
-0.0101077
-0.0101076
-0.0101077
-0.010179
-0.0101792
-0.0101793
-0.0101793
-0.0101792
-0.010179
-0.0101789
-0.0101789
-0.010179
-0.0101791
-0.0101794
-0.0101798
-0.0101802
-0.0101803
-0.01018
-0.0101796
-0.0101791
-0.0101788
-0.0101787
-0.0101787
-0.0102292
-0.0102294
-0.0102296
-0.0102296
-0.0102295
-0.0102293
-0.0102292
-0.0102292
-0.0102292
-0.0102294
-0.0102297
-0.01023
-0.0102304
-0.0102306
-0.0102304
-0.0102299
-0.0102294
-0.0102291
-0.0102289
-0.010229
-0.0102606
-0.0102608
-0.010261
-0.010261
-0.0102609
-0.0102608
-0.0102606
-0.0102606
-0.0102606
-0.0102608
-0.010261
-0.0102614
-0.0102618
-0.010262
-0.0102619
-0.0102614
-0.0102609
-0.0102605
-0.0102604
-0.0102603
-0.0102747
-0.0102749
-0.0102751
-0.0102751
-0.010275
-0.0102749
-0.0102748
-0.0102747
-0.0102748
-0.0102749
-0.0102751
-0.0102754
-0.0102758
-0.0102761
-0.010276
-0.0102756
-0.0102751
-0.0102747
-0.0102745
-0.0102745
-0.0102729
-0.0102731
-0.0102732
-0.0102733
-0.0102732
-0.0102731
-0.010273
-0.0102729
-0.010273
-0.010273
-0.0102732
-0.0102735
-0.0102739
-0.0102743
-0.0102743
-0.0102739
-0.0102733
-0.0102729
-0.0102727
-0.0102726
-0.0102562
-0.0102564
-0.0102566
-0.0102566
-0.0102566
-0.0102564
-0.0102563
-0.0102563
-0.0102563
-0.0102563
-0.0102565
-0.0102568
-0.0102572
-0.0102576
-0.0102577
-0.0102573
-0.0102568
-0.0102563
-0.010256
-0.0102559
-0.0102257
-0.0102259
-0.010226
-0.0102261
-0.0102261
-0.0102259
-0.0102258
-0.0102258
-0.0102258
-0.0102258
-0.0102259
-0.0102261
-0.0102266
-0.010227
-0.0102272
-0.0102269
-0.0102263
-0.0102258
-0.0102255
-0.0102254
-0.0101821
-0.0101823
-0.0101825
-0.0101826
-0.0101825
-0.0101824
-0.0101823
-0.0101823
-0.0101823
-0.0101822
-0.0101823
-0.0101825
-0.010183
-0.0101835
-0.0101837
-0.0101835
-0.0101829
-0.0101824
-0.010182
-0.0101818
-0.0101263
-0.0101265
-0.0101267
-0.0101268
-0.0101268
-0.0101267
-0.0101266
-0.0101265
-0.0101265
-0.0101264
-0.0101264
-0.0101266
-0.0101271
-0.0101277
-0.010128
-0.0101278
-0.0101273
-0.0101267
-0.0101263
-0.0101261
-0.010059
-0.0100593
-0.0100594
-0.0100595
-0.0100595
-0.0100594
-0.0100593
-0.0100593
-0.0100593
-0.0100592
-0.0100591
-0.0100593
-0.0100598
-0.0100604
-0.0100608
-0.0100607
-0.0100602
-0.0100595
-0.0100591
-0.0100588
-0.00998101
-0.00998121
-0.0099814
-0.00998152
-0.00998152
-0.00998143
-0.00998135
-0.00998131
-0.00998126
-0.00998114
-0.00998103
-0.00998117
-0.00998164
-0.00998229
-0.00998276
-0.00998277
-0.00998227
-0.0099816
-0.0099811
-0.00998081
-0.00989295
-0.00989314
-0.00989333
-0.00989346
-0.00989348
-0.00989341
-0.00989333
-0.00989329
-0.00989324
-0.00989308
-0.00989294
-0.00989302
-0.00989348
-0.00989417
-0.00989473
-0.00989482
-0.00989437
-0.00989367
-0.00989311
-0.00989278
-0.00979563
-0.0097958
-0.009796
-0.00979615
-0.00979618
-0.00979612
-0.00979605
-0.00979602
-0.00979595
-0.00979577
-0.00979558
-0.00979562
-0.00979606
-0.00979678
-0.00979742
-0.0097976
-0.00979721
-0.0097965
-0.00979588
-0.00979549
-0.00968987
-0.00969002
-0.00969022
-0.00969038
-0.00969043
-0.00969039
-0.00969033
-0.00969029
-0.00969022
-0.00969003
-0.00968979
-0.00968977
-0.00969019
-0.00969094
-0.00969165
-0.00969193
-0.0096916
-0.00969089
-0.00969021
-0.00968977
-0.00957654
-0.00957667
-0.00957687
-0.00957705
-0.00957711
-0.00957709
-0.00957704
-0.00957701
-0.00957693
-0.00957672
-0.00957645
-0.00957637
-0.00957675
-0.00957751
-0.0095783
-0.00957868
-0.00957843
-0.00957773
-0.009577
-0.00957649
-0.0094566
-0.0094567
-0.0094569
-0.00945708
-0.00945717
-0.00945716
-0.00945713
-0.0094571
-0.00945702
-0.00945679
-0.00945649
-0.00945635
-0.00945668
-0.00945746
-0.00945831
-0.00945879
-0.00945863
-0.00945795
-0.00945717
-0.0094566
-0.00933105
-0.00933111
-0.0093313
-0.0093315
-0.0093316
-0.00933161
-0.00933159
-0.00933157
-0.00933149
-0.00933126
-0.00933092
-0.00933072
-0.009331
-0.00933177
-0.00933268
-0.00933326
-0.0093332
-0.00933256
-0.00933174
-0.00933111
-0.00920095
-0.00920097
-0.00920114
-0.00920135
-0.00920147
-0.0092015
-0.00920149
-0.00920147
-0.0092014
-0.00920116
-0.0092008
-0.00920055
-0.00920075
-0.00920151
-0.00920247
-0.00920315
-0.0092032
-0.00920261
-0.00920177
-0.00920106
-0.00906739
-0.00906736
-0.00906751
-0.00906772
-0.00906787
-0.00906792
-0.00906792
-0.00906791
-0.00906784
-0.00906761
-0.00906722
-0.00906692
-0.00906705
-0.00906777
-0.00906878
-0.00906956
-0.00906972
-0.0090692
-0.00906835
-0.00906757
-0.00893148
-0.0089314
-0.00893153
-0.00893174
-0.00893191
-0.00893198
-0.00893199
-0.00893199
-0.00893193
-0.00893171
-0.00893131
-0.00893096
-0.00893101
-0.00893167
-0.0089327
-0.00893358
-0.00893386
-0.00893343
-0.00893259
-0.00893174
-0.00879434
-0.00879419
-0.00879429
-0.00879451
-0.00879469
-0.00879478
-0.00879481
-0.00879482
-0.00879477
-0.00879455
-0.00879415
-0.00879375
-0.00879372
-0.00879431
-0.00879536
-0.00879633
-0.00879673
-0.0087964
-0.00879558
-0.00879468
-0.00865701
-0.00865679
-0.00865685
-0.00865706
-0.00865726
-0.00865737
-0.00865742
-0.00865743
-0.00865739
-0.0086572
-0.0086568
-0.00865636
-0.00865625
-0.00865675
-0.00865778
-0.00865883
-0.00865936
-0.00865916
-0.00865838
-0.00865744
-0.00852045
-0.00852015
-0.00852016
-0.00852036
-0.00852057
-0.00852071
-0.00852077
-0.0085208
-0.00852077
-0.0085206
-0.00852021
-0.00851974
-0.00851954
-0.00851994
-0.00852094
-0.00852206
-0.00852272
-0.00852264
-0.00852194
-0.00852097
-0.00838549
-0.00838511
-0.00838506
-0.00838524
-0.00838546
-0.00838562
-0.0083857
-0.00838574
-0.00838573
-0.00838558
-0.00838521
-0.00838472
-0.00838445
-0.00838473
-0.00838566
-0.00838683
-0.00838762
-0.00838769
-0.00838707
-0.0083861
-0.0082528
-0.00825233
-0.00825222
-0.00825237
-0.00825259
-0.00825277
-0.00825287
-0.00825292
-0.00825292
-0.00825281
-0.00825246
-0.00825196
-0.00825161
-0.00825178
-0.00825262
-0.00825381
-0.00825473
-0.00825495
-0.00825444
-0.00825349
-0.00812283
-0.00812226
-0.00812207
-0.00812218
-0.00812241
-0.0081226
-0.00812272
-0.00812278
-0.0081228
-0.00812272
-0.00812241
-0.00812191
-0.0081215
-0.00812154
-0.00812227
-0.00812346
-0.00812449
-0.00812486
-0.00812448
-0.00812358
-0.00799578
-0.00799511
-0.00799484
-0.0079949
-0.00799512
-0.00799533
-0.00799547
-0.00799554
-0.00799558
-0.00799552
-0.00799526
-0.00799477
-0.0079943
-0.00799423
-0.00799483
-0.00799597
-0.0079971
-0.00799763
-0.0079974
-0.00799657
-0.00787159
-0.00787084
-0.00787048
-0.00787048
-0.00787068
-0.0078709
-0.00787105
-0.00787114
-0.0078712
-0.00787117
-0.00787095
-0.0078705
-0.00786999
-0.0078698
-0.00787025
-0.00787132
-0.00787251
-0.0078732
-0.00787314
-0.00787241
-0.00774995
-0.00774913
-0.00774866
-0.00774859
-0.00774876
-0.00774898
-0.00774916
-0.00774926
-0.00774933
-0.00774933
-0.00774916
-0.00774875
-0.00774821
-0.00774791
-0.00774821
-0.00774917
-0.0077504
-0.00775125
-0.00775136
-0.00775076
-0.00763024
-0.00762937
-0.00762881
-0.00762865
-0.00762878
-0.007629
-0.00762918
-0.0076293
-0.00762938
-0.00762941
-0.0076293
-0.00762893
-0.00762839
-0.007628
-0.00762814
-0.00762896
-0.00763017
-0.00763116
-0.00763146
-0.00763101
-0.00751163
-0.00751073
-0.00751008
-0.00750983
-0.0075099
-0.0075101
-0.0075103
-0.00751044
-0.00751053
-0.00751058
-0.00751051
-0.00751021
-0.00750969
-0.00750921
-0.00750919
-0.00750985
-0.00751102
-0.00751212
-0.0075126
-0.00751233
-0.00739305
-0.00739216
-0.00739143
-0.00739108
-0.00739108
-0.00739126
-0.00739146
-0.00739161
-0.00739171
-0.00739179
-0.00739176
-0.00739152
-0.00739103
-0.0073905
-0.00739033
-0.00739082
-0.00739189
-0.00739306
-0.00739373
-0.00739365
-0.00727329
-0.00727243
-0.00727165
-0.0072712
-0.00727111
-0.00727125
-0.00727145
-0.00727161
-0.00727173
-0.00727182
-0.00727184
-0.00727166
-0.00727122
-0.00727066
-0.00727035
-0.00727065
-0.00727159
-0.00727278
-0.00727362
-0.00727375
-0.00715101
-0.00715024
-0.00714942
-0.00714888
-0.0071487
-0.00714878
-0.00714897
-0.00714914
-0.00714926
-0.00714937
-0.00714942
-0.00714931
-0.00714894
-0.00714837
-0.00714794
-0.00714805
-0.00714883
-0.00715
-0.00715098
-0.00715131
-0.00702487
-0.00702421
-0.00702339
-0.00702277
-0.00702249
-0.00702251
-0.00702267
-0.00702284
-0.00702297
-0.00702308
-0.00702317
-0.00702312
-0.00702282
-0.00702227
-0.00702176
-0.00702168
-0.00702227
-0.00702336
-0.00702444
-0.00702498
-0.00689353
-0.00689301
-0.00689223
-0.00689155
-0.00689117
-0.00689111
-0.00689122
-0.00689139
-0.00689153
-0.00689165
-0.00689175
-0.00689176
-0.00689154
-0.00689103
-0.00689046
-0.00689022
-0.00689061
-0.00689157
-0.0068927
-0.00689343
-0.00675574
-0.0067554
-0.00675469
-0.00675398
-0.00675351
-0.00675335
-0.00675342
-0.00675356
-0.0067537
-0.00675383
-0.00675395
-0.00675401
-0.00675386
-0.00675342
-0.00675282
-0.00675244
-0.00675261
-0.00675342
-0.00675454
-0.00675542
-0.0066104
-0.00661026
-0.00660967
-0.00660895
-0.00660841
-0.00660816
-0.00660816
-0.00660827
-0.00660841
-0.00660854
-0.00660867
-0.00660876
-0.00660868
-0.00660832
-0.00660773
-0.00660723
-0.00660721
-0.00660783
-0.00660888
-0.00660988
-0.00645658
-0.00645666
-0.00645622
-0.00645554
-0.00645494
-0.0064546
-0.00645452
-0.00645459
-0.00645472
-0.00645484
-0.00645498
-0.00645509
-0.00645508
-0.0064548
-0.00645425
-0.00645368
-0.00645347
-0.00645388
-0.00645482
-0.00645587
-0.00629356
-0.00629385
-0.00629358
-0.00629298
-0.00629237
-0.00629194
-0.00629178
-0.00629179
-0.00629189
-0.00629201
-0.00629214
-0.00629228
-0.00629232
-0.00629212
-0.00629163
-0.00629103
-0.00629066
-0.00629086
-0.00629164
-0.00629269
-0.00612077
-0.00612127
-0.0061212
-0.00612072
-0.00612011
-0.00611962
-0.00611937
-0.00611932
-0.00611938
-0.00611949
-0.00611961
-0.00611975
-0.00611984
-0.00611973
-0.00611931
-0.00611871
-0.00611822
-0.00611821
-0.00611881
-0.0061198
-0.00593784
-0.00593852
-0.00593866
-0.00593833
-0.00593777
-0.00593724
-0.00593691
-0.00593679
-0.0059368
-0.00593689
-0.005937
-0.00593714
-0.00593726
-0.00593721
-0.00593689
-0.00593632
-0.00593575
-0.00593556
-0.00593595
-0.00593683
-0.00574455
-0.00574536
-0.0057457
-0.00574554
-0.00574507
-0.00574454
-0.00574414
-0.00574394
-0.0057439
-0.00574395
-0.00574405
-0.00574418
-0.00574431
-0.00574433
-0.0057441
-0.00574359
-0.00574299
-0.00574264
-0.00574282
-0.00574354
-0.00554074
-0.00554162
-0.00554215
-0.00554218
-0.00554183
-0.00554132
-0.00554088
-0.00554061
-0.00554051
-0.00554052
-0.0055406
-0.00554071
-0.00554085
-0.00554091
-0.00554076
-0.00554033
-0.00553974
-0.00553928
-0.00553926
-0.0055398
-0.00532632
-0.00532723
-0.0053279
-0.00532811
-0.00532791
-0.00532747
-0.00532702
-0.00532669
-0.00532652
-0.00532648
-0.00532652
-0.00532662
-0.00532675
-0.00532684
-0.00532677
-0.00532643
-0.00532587
-0.00532534
-0.00532516
-0.0053255
-0.00510121
-0.00510209
-0.00510285
-0.00510324
-0.0051032
-0.00510286
-0.00510242
-0.00510205
-0.00510182
-0.00510173
-0.00510174
-0.00510181
-0.00510192
-0.00510203
-0.00510202
-0.00510177
-0.00510127
-0.00510072
-0.0051004
-0.00510055
-0.0048653
-0.00486609
-0.0048669
-0.00486743
-0.00486756
-0.00486735
-0.00486696
-0.00486657
-0.00486629
-0.00486614
-0.0048661
-0.00486614
-0.00486623
-0.00486634
-0.00486637
-0.00486621
-0.0048658
-0.00486526
-0.00486484
-0.00486481
-0.00461844
-0.00461911
-0.0046199
-0.00462053
-0.00462082
-0.00462074
-0.00462043
-0.00462005
-0.00461974
-0.00461954
-0.00461946
-0.00461946
-0.00461952
-0.00461962
-0.00461968
-0.00461959
-0.00461927
-0.00461877
-0.00461831
-0.00461813
-0.0043604
-0.00436091
-0.00436165
-0.00436233
-0.00436274
-0.00436281
-0.00436261
-0.00436227
-0.00436195
-0.00436171
-0.00436157
-0.00436153
-0.00436157
-0.00436165
-0.00436172
-0.00436169
-0.00436145
-0.00436102
-0.00436055
-0.00436026
-0.00409089
-0.00409125
-0.00409188
-0.00409256
-0.00409307
-0.00409328
-0.00409319
-0.00409292
-0.0040926
-0.00409234
-0.00409217
-0.00409209
-0.00409208
-0.00409214
-0.00409221
-0.00409222
-0.00409206
-0.00409171
-0.00409126
-0.0040909
-0.00380959
-0.00380978
-0.00381029
-0.00381093
-0.00381149
-0.0038118
-0.00381183
-0.00381165
-0.00381137
-0.0038111
-0.0038109
-0.00381078
-0.00381074
-0.00381077
-0.00381083
-0.00381086
-0.00381077
-0.0038105
-0.00381009
-0.00380971
-0.00351608
-0.00351614
-0.0035165
-0.00351706
-0.00351762
-0.00351802
-0.00351817
-0.00351808
-0.00351786
-0.0035176
-0.00351738
-0.00351723
-0.00351716
-0.00351715
-0.0035172
-0.00351724
-0.0035172
-0.003517
-0.00351666
-0.00351628
-0.00320995
-0.0032099
-0.00321012
-0.00321057
-0.0032111
-0.00321155
-0.00321179
-0.0032118
-0.00321165
-0.00321143
-0.00321121
-0.00321104
-0.00321093
-0.00321089
-0.00321091
-0.00321095
-0.00321094
-0.00321081
-0.00321055
-0.0032102
-0.00289076
-0.00289062
-0.00289072
-0.00289105
-0.00289152
-0.00289197
-0.00289227
-0.00289238
-0.00289231
-0.00289214
-0.00289193
-0.00289175
-0.00289163
-0.00289156
-0.00289156
-0.00289158
-0.00289159
-0.00289151
-0.00289132
-0.00289102
-0.00255805
-0.00255786
-0.00255786
-0.00255807
-0.00255845
-0.00255887
-0.00255921
-0.00255939
-0.0025594
-0.00255928
-0.00255911
-0.00255894
-0.00255881
-0.00255872
-0.00255869
-0.0025587
-0.00255871
-0.00255867
-0.00255854
-0.00255829
-0.00221137
-0.00221117
-0.00221108
-0.00221119
-0.00221147
-0.00221183
-0.00221217
-0.0022124
-0.00221248
-0.00221243
-0.00221231
-0.00221215
-0.00221202
-0.00221192
-0.00221186
-0.00221186
-0.00221187
-0.00221186
-0.00221177
-0.00221158
-0.00185028
-0.00185008
-0.00184995
-0.00184996
-0.00185014
-0.00185043
-0.00185074
-0.00185099
-0.00185112
-0.00185114
-0.00185107
-0.00185095
-0.00185082
-0.00185072
-0.00185065
-0.00185063
-0.00185063
-0.00185064
-0.00185058
-0.00185045
-0.00147434
-0.00147416
-0.001474
-0.00147395
-0.00147403
-0.00147424
-0.0014745
-0.00147475
-0.00147492
-0.00147499
-0.00147496
-0.00147488
-0.00147478
-0.00147468
-0.00147461
-0.00147457
-0.00147457
-0.00147458
-0.00147455
-0.00147446
-0.00108312
-0.00108297
-0.00108281
-0.00108271
-0.00108272
-0.00108284
-0.00108305
-0.00108327
-0.00108344
-0.00108355
-0.00108358
-0.00108354
-0.00108346
-0.00108338
-0.00108331
-0.00108326
-0.00108325
-0.00108326
-0.00108325
-0.0010832
-0.000676208
-0.000676089
-0.000675944
-0.000675823
-0.000675776
-0.000675826
-0.000675959
-0.000676135
-0.000676305
-0.000676429
-0.00067649
-0.000676491
-0.000676449
-0.000676387
-0.000676328
-0.000676286
-0.00067627
-0.000676276
-0.00067628
-0.000676255
-0.000253203
-0.000253117
-0.000252993
-0.000252869
-0.000252784
-0.000252773
-0.000252841
-0.000252965
-0.000253108
-0.000253234
-0.000253317
-0.00025335
-0.000253341
-0.000253305
-0.000253261
-0.000253227
-0.00025321
-0.000253214
-0.000253226
-0.00025322
0.000186283
0.000186339
0.000186438
0.000186554
0.000186657
0.000186712
0.000186701
0.000186631
0.000186525
0.000186414
0.000186324
0.000186269
0.00018625
0.000186259
0.000186283
0.000186305
0.000186317
0.000186312
0.000186296
0.000186289
0.000642615
0.000642645
0.000642718
0.000642819
0.000642925
0.000643008
0.000643042
0.000643022
0.000642959
0.000642874
0.00064279
0.000642725
0.000642686
0.000642671
0.000642673
0.000642681
0.000642684
0.000642676
0.000642655
0.000642637
0.00111613
0.00111614
0.00111619
0.00111627
0.00111637
0.00111646
0.00111653
0.00111655
0.00111653
0.00111648
0.00111641
0.00111635
0.0011163
0.00111627
0.00111625
0.00111624
0.00111623
0.00111622
0.00111619
0.00111617
0.00160714
0.00160713
0.00160716
0.00160722
0.0016073
0.0016074
0.00160748
0.00160753
0.00160755
0.00160753
0.00160749
0.00160744
0.00160739
0.00160734
0.00160731
0.00160729
0.00160727
0.00160725
0.00160721
0.00160718
0.00211588
0.00211586
0.00211587
0.00211591
0.00211598
0.00211607
0.00211616
0.00211623
0.00211628
0.00211629
0.00211627
0.00211624
0.0021162
0.00211615
0.00211611
0.00211608
0.00211605
0.00211601
0.00211598
0.00211594
0.00264256
0.00264253
0.00264253
0.00264255
0.0026426
0.00264267
0.00264276
0.00264284
0.0026429
0.00264294
0.00264295
0.00264294
0.00264291
0.00264287
0.00264283
0.00264279
0.00264275
0.00264271
0.00264267
0.00264262
0.00318728
0.00318724
0.00318722
0.00318723
0.00318726
0.00318732
0.00318739
0.00318748
0.00318755
0.00318761
0.00318764
0.00318765
0.00318764
0.00318761
0.00318757
0.00318753
0.00318749
0.00318744
0.00318739
0.00318735
0.00375003
0.00374999
0.00374996
0.00374995
0.00374996
0.00375
0.00375007
0.00375014
0.00375022
0.00375029
0.00375034
0.00375036
0.00375037
0.00375036
0.00375033
0.00375029
0.00375024
0.0037502
0.00375015
0.0037501
0.00433067
0.00433062
0.00433059
0.00433056
0.00433056
0.00433058
0.00433063
0.0043307
0.00433077
0.00433084
0.0043309
0.00433094
0.00433096
0.00433096
0.00433095
0.00433092
0.00433088
0.00433083
0.00433078
0.00433073
0.00492886
0.00492881
0.00492877
0.00492874
0.00492873
0.00492873
0.00492876
0.00492881
0.00492888
0.00492894
0.00492901
0.00492906
0.00492909
0.00492911
0.0049291
0.00492908
0.00492905
0.00492901
0.00492897
0.00492892
0.00554403
0.00554399
0.00554394
0.00554391
0.00554388
0.00554388
0.00554389
0.00554393
0.00554398
0.00554404
0.0055441
0.00554416
0.0055442
0.00554422
0.00554423
0.00554422
0.0055442
0.00554417
0.00554413
0.00554409
0.00617533
0.00617529
0.00617525
0.00617521
0.00617517
0.00617516
0.00617516
0.00617518
0.00617521
0.00617526
0.00617532
0.00617538
0.00617542
0.00617545
0.00617547
0.00617547
0.00617546
0.00617544
0.00617541
0.00617538
0.00682149
0.00682146
0.00682142
0.00682138
0.00682134
0.00682132
0.00682131
0.00682131
0.00682134
0.00682137
0.00682142
0.00682147
0.00682152
0.00682156
0.00682158
0.00682159
0.00682158
0.00682157
0.00682156
0.00682153
0.00748078
0.00748075
0.00748072
0.00748068
0.00748065
0.00748061
0.00748059
0.00748059
0.0074806
0.00748062
0.00748066
0.00748071
0.00748075
0.00748079
0.00748081
0.00748083
0.00748083
0.00748083
0.00748082
0.00748081
0.00815083
0.00815081
0.00815078
0.00815075
0.00815071
0.00815068
0.00815065
0.00815063
0.00815063
0.00815064
0.00815067
0.00815071
0.00815075
0.00815078
0.00815081
0.00815083
0.00815084
0.00815084
0.00815085
0.00815084
0.00882846
0.00882845
0.00882843
0.00882841
0.00882837
0.00882834
0.0088283
0.00882828
0.00882826
0.00882827
0.00882829
0.00882832
0.00882835
0.00882838
0.00882841
0.00882842
0.00882844
0.00882845
0.00882846
0.00882847
0.00950951
0.00950951
0.0095095
0.00950948
0.00950945
0.00950941
0.00950938
0.00950935
0.00950932
0.00950932
0.00950933
0.00950935
0.00950938
0.00950941
0.00950943
0.00950944
0.00950946
0.00950947
0.00950949
0.0095095
0.0101885
0.0101885
0.0101885
0.0101885
0.0101885
0.0101885
0.0101884
0.0101884
0.0101884
0.0101883
0.0101883
0.0101884
0.0101884
0.0101884
0.0101884
0.0101884
0.0101885
0.0101885
0.0101885
0.0101885
0.0108585
0.0108585
0.0108585
0.0108585
0.0108585
0.0108584
0.0108584
0.0108584
0.0108583
0.0108583
0.0108583
0.0108583
0.0108583
0.0108583
0.0108584
0.0108584
0.0108584
0.0108584
0.0108584
0.0108584
0.0115103
0.0115103
0.0115103
0.0115103
0.0115103
0.0115103
0.0115103
0.0115102
0.0115102
0.0115102
0.0115101
0.0115101
0.0115102
0.0115102
0.0115102
0.0115102
0.0115102
0.0115102
0.0115102
0.0115103
0.0121326
0.0121326
0.0121326
0.0121326
0.0121326
0.0121326
0.0121325
0.0121325
0.0121325
0.0121324
0.0121324
0.0121324
0.0121324
0.0121324
0.0121325
0.0121325
0.0121325
0.0121325
0.0121325
0.0121325
0.0127108
0.0127109
0.0127109
0.0127109
0.0127109
0.0127109
0.0127108
0.0127108
0.0127108
0.0127107
0.0127107
0.0127107
0.0127107
0.0127107
0.0127107
0.0127107
0.0127107
0.0127107
0.0127108
0.0127108
0.0132271
0.0132272
0.0132272
0.0132272
0.0132272
0.0132272
0.0132272
0.0132271
0.0132271
0.013227
0.013227
0.013227
0.013227
0.013227
0.013227
0.0132271
0.0132271
0.0132271
0.0132271
0.0132271
0.0136595
0.0136596
0.0136596
0.0136596
0.0136596
0.0136596
0.0136596
0.0136595
0.0136595
0.0136595
0.0136594
0.0136594
0.0136594
0.0136594
0.0136594
0.0136594
0.0136594
0.0136594
0.0136595
0.0136595
0.0139815
0.0139815
0.0139815
0.0139816
0.0139816
0.0139816
0.0139816
0.0139815
0.0139815
0.0139814
0.0139814
0.0139814
0.0139814
0.0139814
0.0139814
0.0139814
0.0139814
0.0139814
0.0139814
0.0139814
0.0141619
0.014162
0.014162
0.014162
0.0141621
0.0141621
0.014162
0.014162
0.014162
0.0141619
0.0141619
0.0141619
0.0141618
0.0141619
0.0141619
0.0141619
0.0141619
0.0141619
0.0141619
0.0141619
0.0141656
0.0141657
0.0141657
0.0141657
0.0141658
0.0141658
0.0141658
0.0141657
0.0141657
0.0141657
0.0141656
0.0141656
0.0141656
0.0141656
0.0141656
0.0141656
0.0141656
0.0141656
0.0141656
0.0141656
0.0139545
0.0139545
0.0139546
0.0139546
0.0139546
0.0139546
0.0139547
0.0139546
0.0139546
0.0139546
0.0139546
0.0139545
0.0139545
0.0139545
0.0139545
0.0139545
0.0139545
0.0139545
0.0139545
0.0139544
0.0134907
0.0134907
0.0134908
0.0134908
0.0134908
0.0134909
0.0134909
0.0134909
0.0134909
0.0134909
0.0134909
0.0134908
0.0134908
0.0134907
0.0134907
0.0134907
0.0134907
0.0134907
0.0134907
0.0134906
0.0127417
0.0127418
0.0127418
0.0127419
0.0127419
0.012742
0.012742
0.012742
0.012742
0.012742
0.012742
0.012742
0.0127419
0.0127419
0.0127419
0.0127418
0.0127418
0.0127418
0.0127417
0.0127417
0.0116886
0.0116887
0.0116887
0.0116888
0.0116888
0.0116889
0.0116889
0.011689
0.011689
0.011689
0.011689
0.011689
0.0116889
0.0116889
0.0116888
0.0116888
0.0116887
0.0116887
0.0116887
0.0116886
0.0103367
0.0103367
0.0103367
0.0103368
0.0103369
0.0103369
0.010337
0.0103371
0.0103371
0.0103372
0.0103372
0.0103371
0.0103371
0.010337
0.010337
0.0103369
0.0103368
0.0103368
0.0103367
0.0103367
0.00872747
0.00872747
0.00872751
0.00872756
0.00872763
0.0087277
0.00872778
0.00872785
0.00872792
0.00872796
0.00872799
0.00872798
0.00872795
0.00872789
0.00872782
0.00872774
0.00872767
0.00872759
0.00872753
0.00872748
0.00686686
0.00686686
0.00686688
0.00686693
0.00686699
0.00686706
0.00686714
0.00686722
0.00686729
0.00686734
0.00686737
0.00686738
0.00686735
0.0068673
0.00686724
0.00686716
0.00686708
0.006867
0.00686693
0.00686688
0.00494339
0.00494338
0.0049434
0.00494343
0.00494349
0.00494355
0.00494362
0.00494369
0.00494375
0.00494381
0.00494384
0.00494385
0.00494384
0.0049438
0.00494374
0.00494367
0.0049436
0.00494353
0.00494347
0.00494342
0.00322733
0.00322732
0.00322733
0.00322735
0.00322739
0.00322744
0.00322749
0.00322755
0.0032276
0.00322764
0.00322767
0.00322769
0.00322768
0.00322765
0.00322761
0.00322756
0.0032275
0.00322745
0.00322739
0.00322735
0.00180565
0.00180564
0.00180564
0.00180566
0.00180568
0.00180572
0.00180575
0.00180579
0.00180583
0.00180586
0.00180588
0.00180589
0.00180589
0.00180588
0.00180585
0.00180582
0.00180578
0.00180574
0.0018057
0.00180567
0.000699117
0.000699111
0.000699112
0.00069912
0.000699134
0.000699153
0.000699175
0.000699198
0.000699221
0.000699241
0.000699255
0.000699263
0.000699263
0.000699255
0.000699241
0.000699221
0.000699198
0.000699174
0.000699152
0.000699133
-0.00012039
-0.000120394
-0.000120393
-0.00012039
-0.000120383
-0.000120373
-0.000120362
-0.00012035
-0.000120339
-0.000120328
-0.000120321
-0.000120316
-0.000120316
-0.000120319
-0.000120326
-0.000120335
-0.000120346
-0.000120357
-0.000120368
-0.000120379
-0.000705642
-0.000705643
-0.000705643
-0.000705642
-0.000705639
-0.000705635
-0.000705631
-0.000705627
-0.000705622
-0.000705618
-0.000705615
-0.000705614
-0.000705613
-0.000705614
-0.000705616
-0.000705619
-0.000705622
-0.000705626
-0.00070563
-0.000705635
-0.00110015
-0.00110015
-0.00110015
-0.00110015
-0.00110015
-0.00110015
-0.00110015
-0.00110015
-0.00110015
-0.00110015
-0.00110015
-0.00110015
-0.00110015
-0.00110015
-0.00110015
-0.00110015
-0.00110015
-0.00110015
-0.00110015
-0.00110015
-0.00134793
-0.00134793
-0.00134793
-0.00134793
-0.00134793
-0.00134793
-0.00134793
-0.00134793
-0.00134793
-0.00134793
-0.00134794
-0.00134794
-0.00134794
-0.00134794
-0.00134793
-0.00134793
-0.00134793
-0.00134793
-0.00134793
-0.00134793
-0.00149069
-0.00149068
-0.00149068
-0.00149068
-0.00149068
-0.00149069
-0.00149069
-0.00149069
-0.00149069
-0.00149069
-0.0014907
-0.0014907
-0.0014907
-0.0014907
-0.00149069
-0.00149069
-0.00149069
-0.00149069
-0.00149068
-0.00149068
-0.00155572
-0.00155572
-0.00155572
-0.00155572
-0.00155572
-0.00155572
-0.00155572
-0.00155573
-0.00155573
-0.00155573
-0.00155573
-0.00155573
-0.00155573
-0.00155573
-0.00155573
-0.00155573
-0.00155573
-0.00155572
-0.00155572
-0.00155572
-0.00156331
-0.0015633
-0.0015633
-0.0015633
-0.0015633
-0.0015633
-0.00156331
-0.00156331
-0.00156331
-0.00156331
-0.00156331
-0.00156331
-0.00156331
-0.00156331
-0.00156331
-0.00156331
-0.00156331
-0.00156331
-0.0015633
-0.0015633
-0.00152869
-0.00152869
-0.00152869
-0.00152869
-0.00152869
-0.00152869
-0.00152869
-0.00152869
-0.00152869
-0.00152869
-0.0015287
-0.0015287
-0.0015287
-0.0015287
-0.0015287
-0.00152869
-0.00152869
-0.00152869
-0.00152869
-0.00152869
-0.0014633
-0.0014633
-0.0014633
-0.0014633
-0.0014633
-0.0014633
-0.0014633
-0.0014633
-0.0014633
-0.0014633
-0.0014633
-0.00146331
-0.00146331
-0.00146331
-0.00146331
-0.0014633
-0.0014633
-0.0014633
-0.0014633
-0.0014633
-0.00137572
-0.00137572
-0.00137572
-0.00137572
-0.00137572
-0.00137572
-0.00137572
-0.00137572
-0.00137572
-0.00137572
-0.00137573
-0.00137573
-0.00137573
-0.00137573
-0.00137573
-0.00137573
-0.00137573
-0.00137572
-0.00137572
-0.00137572
-0.00127248
-0.00127248
-0.00127248
-0.00127248
-0.00127248
-0.00127248
-0.00127248
-0.00127248
-0.00127248
-0.00127248
-0.00127248
-0.00127248
-0.00127248
-0.00127248
-0.00127248
-0.00127248
-0.00127248
-0.00127248
-0.00127248
-0.00127248
-0.00115861
-0.00115861