/*--------------------------------*- C++ -*----------------------------------*\
  =========                 |
  \\      /  F ield         | OpenFOAM: The Open Source CFD Toolbox
   \\    /   O peration     | Website:  https://openfoam.org
    \\  /    A nd           | Version:  6
     \\/     M anipulation  |
\*---------------------------------------------------------------------------*/
FoamFile
{
    version     2.0;
    format      ascii;
    class       surfaceScalarField;
    location    "19.44";
    object      ddtCorrDdt0(phi);
}
// * * * * * * * * * * * * * * * * * * * * * * * * * * * * * * * * * * * * * //

dimensions      [0 3 -2 0 0 0 0];

internalField   nonuniform List<scalar> 
6298
(
-3.07565e-10
1.07946e-15
-3.07568e-10
2.72217e-15
-3.07569e-10
3.68809e-16
-3.07566e-10
-2.04203e-15
-3.07563e-10
-3.94767e-15
-3.07558e-10
-4.24661e-15
-3.07556e-10
-2.65951e-15
-3.07557e-10
1.29545e-15
-3.07564e-10
7.2258e-15
-3.07576e-10
1.19963e-14
-3.0759e-10
1.40768e-14
-3.07601e-10
1.04954e-14
-3.076e-10
-3.57525e-16
-3.07589e-10
-1.15298e-14
-3.07573e-10
-1.55953e-14
-3.07561e-10
-1.25419e-14
-3.07553e-10
-7.34749e-15
-3.07552e-10
-1.39208e-15
-3.07555e-10
2.90037e-15
5.24767e-15
-5.85015e-10
1.09529e-14
-5.8502e-10
7.89493e-15
-5.85021e-10
1.38783e-15
-5.85018e-10
-5.14168e-15
-5.85012e-10
-1.03413e-14
-5.85004e-10
-1.1704e-14
-5.84999e-10
-8.31465e-15
-5.84999e-10
1.86672e-15
-5.85011e-10
1.84406e-14
-5.85032e-10
3.30396e-14
-5.85059e-10
4.11234e-14
-5.85081e-10
3.32077e-14
-5.85084e-10
2.5771e-15
-5.85065e-10
-3.10578e-14
-5.85036e-10
-4.45669e-14
-5.85011e-10
-3.72039e-14
-5.84995e-10
-2.29844e-14
-5.84991e-10
-5.7415e-15
-5.84996e-10
7.46515e-15
1.48486e-14
-7.56398e-10
2.34678e-14
-7.56405e-10
1.45823e-14
-7.56406e-10
3.02425e-15
-7.56403e-10
-8.33661e-15
-7.56396e-10
-1.74877e-14
-7.56387e-10
-2.07243e-14
-7.56379e-10
-1.62093e-14
-7.56378e-10
7.18118e-16
-7.5639e-10
3.04699e-14
-7.56415e-10
5.85239e-14
-7.56451e-10
7.63482e-14
-7.56483e-10
6.51927e-14
-7.5649e-10
9.84504e-15
-7.56467e-10
-5.39029e-14
-7.5643e-10
-8.13551e-14
-7.56398e-10
-6.98497e-14
-7.56376e-10
-4.47866e-14
-7.56368e-10
-1.30577e-14
-7.56373e-10
1.24194e-14
2.68667e-14
-8.81063e-10
3.77874e-14
-8.81071e-10
2.23806e-14
-8.81073e-10
5.2719e-15
-8.8107e-10
-1.11894e-14
-8.81063e-10
-2.46529e-14
-8.81053e-10
-3.05886e-14
-8.81044e-10
-2.60017e-14
-8.8104e-10
-2.58271e-15
-8.81052e-10
4.19773e-14
-8.8108e-10
8.6472e-14
-8.81121e-10
1.1763e-13
-8.81161e-10
1.05051e-13
-8.81173e-10
2.18026e-14
-8.81149e-10
-7.80233e-14
-8.81107e-10
-1.23542e-13
-8.81068e-10
-1.08623e-13
-8.81041e-10
-7.1771e-14
-8.81031e-10
-2.33315e-14
-8.81035e-10
1.72309e-14
4.04514e-14
-9.80692e-10
5.34651e-14
-9.80701e-10
3.10782e-14
-9.80704e-10
8.13054e-15
-9.80701e-10
-1.34704e-14
-9.80695e-10
-3.1456e-14
-9.80684e-10
-4.09146e-14
-9.80673e-10
-3.74868e-14
-9.80667e-10
-8.2319e-15
-9.80678e-10
5.22955e-14
-9.80707e-10
1.15854e-13
-9.80753e-10
1.63786e-13
-9.808e-10
1.5192e-13
-9.80817e-10
3.8563e-14
-9.80792e-10
-1.0233e-13
-9.80746e-10
-1.69821e-13
-9.80702e-10
-1.52485e-13
-9.80671e-10
-1.03361e-13
-9.80657e-10
-3.65455e-14
-9.80662e-10
2.16137e-14
5.51446e-14
-1.0652e-09
7.02302e-14
-1.06521e-09
4.05506e-14
-1.06521e-09
1.16018e-14
-1.06521e-09
-1.50509e-14
-1.0652e-09
-3.76853e-14
-1.06519e-09
-5.14706e-14
-1.06518e-09
-5.05059e-14
-1.06517e-09
-1.63083e-14
-1.06518e-09
6.10732e-14
-1.06521e-09
1.46062e-13
-1.06526e-09
2.14032e-13
-1.06532e-09
2.05167e-13
-1.06534e-09
6.01312e-14
-1.06531e-09
-1.26143e-13
-1.06526e-09
-2.19388e-13
-1.06522e-09
-2.00762e-13
-1.06518e-09
-1.39144e-13
-1.06516e-09
-5.26817e-14
-1.06517e-09
2.53821e-14
7.06582e-14
-1.13979e-09
8.79053e-14
-1.1398e-09
5.07197e-14
-1.13981e-09
1.56829e-14
-1.13981e-09
-1.58579e-14
-1.1398e-09
-4.32169e-14
-1.13979e-09
-6.21036e-14
-1.13978e-09
-6.49207e-14
-1.13977e-09
-2.68182e-14
-1.13977e-09
6.81219e-14
-1.1398e-09
1.767e-13
-1.13986e-09
2.67785e-13
-1.13992e-09
2.64271e-13
-1.13994e-09
8.64563e-14
-1.13992e-09
-1.48995e-13
-1.13987e-09
-2.71675e-13
-1.13981e-09
-2.52971e-13
-1.13978e-09
-1.78814e-13
-1.13976e-09
-7.17107e-14
-1.13976e-09
2.84005e-14
8.67888e-14
-1.20748e-09
1.06362e-13
-1.20749e-09
6.15335e-14
-1.20749e-09
2.03711e-14
-1.20749e-09
-1.58525e-14
-1.20749e-09
-4.79793e-14
-1.20748e-09
-7.27054e-14
-1.20746e-09
-8.06041e-14
-1.20745e-09
-3.97099e-14
-1.20745e-09
7.33357e-14
-1.20748e-09
2.07478e-13
-1.20754e-09
3.24593e-13
-1.20761e-09
3.28776e-13
-1.20764e-09
1.17456e-13
-1.20761e-09
-1.70548e-13
-1.20756e-09
-3.26235e-13
-1.2075e-09
-3.08747e-13
-1.20746e-09
-2.22136e-13
-1.20744e-09
-9.35814e-14
-1.20744e-09
3.05628e-14
1.03381e-13
-1.27011e-09
1.25503e-13
-1.27012e-09
7.29567e-14
-1.27013e-09
2.56614e-14
-1.27013e-09
-1.50189e-14
-1.27012e-09
-5.19334e-14
-1.27011e-09
-8.31953e-14
-1.2701e-09
-9.74394e-14
-1.27008e-09
-5.48953e-14
-1.27008e-09
7.6672e-14
-1.27011e-09
2.38172e-13
-1.27017e-09
3.84072e-13
-1.27024e-09
3.98266e-13
-1.27028e-09
1.53028e-13
-1.27026e-09
-1.90537e-13
-1.2702e-09
-3.8269e-13
-1.27014e-09
-3.67804e-13
-1.2701e-09
-2.68926e-13
-1.27007e-09
-1.18226e-13
-1.27007e-09
3.17782e-14
1.20305e-13
-1.3289e-09
1.45254e-13
-1.32891e-09
8.49623e-14
-1.32892e-09
3.15439e-14
-1.32892e-09
-1.33556e-14
-1.32892e-09
-5.5058e-14
-1.32891e-09
-9.35097e-14
-1.32889e-09
-1.15313e-13
-1.32887e-09
-7.22665e-14
-1.32887e-09
7.81214e-14
-1.3289e-09
2.68607e-13
-1.32897e-09
4.45887e-13
-1.32904e-09
4.72357e-13
-1.32908e-09
1.9305e-13
-1.32906e-09
-2.08758e-13
-1.329e-09
-4.40708e-13
-1.32894e-09
-4.29889e-13
-1.32889e-09
-3.19018e-13
-1.32886e-09
-1.45575e-13
-1.32887e-09
3.19679e-14
1.3745e-13
-1.38468e-09
1.65556e-13
-1.38469e-09
9.75283e-14
-1.3847e-09
3.80077e-14
-1.3847e-09
-1.08741e-14
-1.3847e-09
-5.73432e-14
-1.38469e-09
-1.0359e-13
-1.38467e-09
-1.34123e-13
-1.38465e-09
-9.17074e-14
-1.38465e-09
7.77038e-14
-1.38468e-09
2.98641e-13
-1.38474e-09
5.09739e-13
-1.38482e-09
5.50698e-13
-1.38486e-09
2.37382e-13
-1.38485e-09
-2.2505e-13
-1.38479e-09
-4.99994e-13
-1.38472e-09
-4.94782e-13
-1.38467e-09
-3.72261e-13
-1.38464e-09
-1.75558e-13
-1.38464e-09
3.10622e-14
1.54717e-13
-1.43801e-09
1.86354e-13
-1.43803e-09
1.10639e-13
-1.43803e-09
4.50472e-14
-1.43804e-09
-7.58704e-15
-1.43804e-09
-5.87972e-14
-1.43803e-09
-1.13396e-13
-1.43801e-09
-1.53782e-13
-1.43799e-09
-1.13108e-13
-1.43798e-09
7.54629e-14
-1.43801e-09
3.28178e-13
-1.43808e-09
5.75383e-13
-1.43816e-09
6.32974e-13
-1.43821e-09
2.8586e-13
-1.43819e-09
-2.39306e-13
-1.43813e-09
-5.603e-13
-1.43807e-09
-5.62295e-13
-1.43801e-09
-4.2852e-13
-1.43798e-09
-2.08099e-13
-1.43798e-09
2.9021e-14
1.72022e-13
-2.40383e-09
2.20523e-13
-2.40385e-09
1.32697e-13
-2.40386e-09
5.7451e-14
-2.40387e-09
-7.05027e-16
-2.40387e-09
-5.9422e-14
-2.40386e-09
-1.28397e-13
-2.40382e-09
-1.86722e-13
-2.40379e-09
-1.51094e-13
-2.40378e-09
6.81724e-14
-2.40382e-09
3.74116e-13
-2.40393e-09
6.83473e-13
-2.40407e-09
7.71868e-13
-2.40416e-09
3.71575e-13
-2.40414e-09
-2.57578e-13
-2.40404e-09
-6.58219e-13
-2.40393e-09
-6.7515e-13
-2.40383e-09
-5.24396e-13
-2.40377e-09
-2.65268e-13
-2.40377e-09
2.33063e-14
1.99519e-13
-2.69325e-09
2.57939e-13
-2.69328e-09
1.57574e-13
-2.69329e-09
7.21556e-14
-2.6933e-09
8.71448e-15
-2.6933e-09
-5.78457e-14
-2.69329e-09
-1.43333e-13
-2.69325e-09
-2.23393e-13
-2.6932e-09
-1.95951e-13
-2.69319e-09
5.54978e-14
-2.69324e-09
4.21024e-13
-2.69336e-09
8.01829e-13
-2.69351e-09
9.28157e-13
-2.69362e-09
4.73208e-13
-2.6936e-09
-2.70569e-13
-2.6935e-09
-7.6329e-13
-2.69337e-09
-8.012e-13
-2.69326e-09
-6.33933e-13
-2.69319e-09
-3.3265e-13
-2.69318e-09
1.35915e-14
2.28227e-13
-3.01196e-09
2.98741e-13
-3.01199e-09
1.85556e-13
-3.01201e-09
8.94259e-14
-3.01202e-09
2.09736e-14
-3.01203e-09
-5.37266e-14
-3.01201e-09
-1.5794e-13
-3.01197e-09
-2.6371e-13
-3.01192e-09
-2.47873e-13
-3.0119e-09
3.66312e-14
-3.01195e-09
4.6833e-13
-3.01208e-09
9.30414e-13
-3.01225e-09
1.10233e-12
-3.01237e-09
5.92336e-13
-3.01236e-09
-2.76626e-13
-3.01225e-09
-8.7479e-13
-3.01211e-09
-9.41102e-13
-3.01199e-09
-7.58305e-13
-3.01191e-09
-4.11372e-13
-3.01189e-09
-1.23723e-15
2.57698e-13
-3.36334e-09
3.43034e-13
-3.36337e-09
2.16929e-13
-3.36339e-09
1.09554e-13
-3.3634e-09
3.6393e-14
-3.36341e-09
-4.67065e-14
-3.3634e-09
-1.71925e-13
-3.36335e-09
-3.07501e-13
-3.36329e-09
-3.06976e-13
-3.36327e-09
1.07364e-14
-3.36331e-09
5.1545e-13
-3.36345e-09
1.06908e-12
-3.36365e-09
1.29461e-12
-3.36378e-09
7.30502e-13
-3.36379e-09
-2.73873e-13
-3.36367e-09
-9.91827e-13
-3.36351e-09
-1.09531e-12
-3.36337e-09
-8.98585e-13
-3.36328e-09
-5.02706e-13
-3.36326e-09
-2.24817e-14
2.87352e-13
-3.75095e-09
3.908e-13
-3.75099e-09
2.51979e-13
-3.75101e-09
1.32845e-13
-3.75103e-09
5.53205e-14
-3.75104e-09
-3.64274e-14
-3.75103e-09
-1.84981e-13
-3.75098e-09
-3.54467e-13
-3.75091e-09
-3.73241e-13
-3.75088e-09
-2.27847e-14
-3.75093e-09
5.61495e-13
-3.75107e-09
1.21721e-12
-3.75129e-09
1.5052e-12
-3.75144e-09
8.8919e-13
-3.75146e-09
-2.60195e-13
-3.75134e-09
-1.11315e-12
-3.75117e-09
-1.26413e-12
-3.75101e-09
-1.05579e-12
-3.7509e-09
-6.08056e-13
-3.75088e-09
-5.15939e-14
3.16519e-13
-4.17865e-09
4.41957e-13
-4.17868e-09
2.90972e-13
-4.17871e-09
1.59663e-13
-4.17873e-09
7.8092e-14
-4.17875e-09
-2.25686e-14
-4.17874e-09
-1.96747e-13
-4.17869e-09
-4.04172e-13
-4.17861e-09
-4.46393e-13
-4.17857e-09
-6.45155e-14
-4.17862e-09
6.05412e-13
-4.17877e-09
1.3739e-12
-4.179e-09
1.7339e-12
-4.17918e-09
1.06979e-12
-4.17921e-09
-2.33208e-13
-4.17908e-09
-1.23701e-12
-4.1789e-09
-1.44769e-12
-4.17873e-09
-1.2309e-12
-4.1786e-09
-7.28796e-13
-4.17857e-09
-9.02738e-14
3.44326e-13
-4.65052e-09
4.96239e-13
-4.65056e-09
3.34206e-13
-4.65059e-09
1.90412e-13
-4.65062e-09
1.05002e-13
-4.65064e-09
-4.79484e-15
-4.65062e-09
-2.0678e-13
-4.65057e-09
-4.56064e-13
-4.65049e-09
-5.25945e-13
-4.65044e-09
-1.14932e-13
-4.65048e-09
6.46093e-13
-4.65065e-09
1.53786e-12
-4.65089e-09
1.98003e-12
-4.6511e-09
1.27354e-12
-4.65114e-09
-1.90242e-13
-4.65102e-09
-1.36108e-12
-4.65082e-09
-1.64598e-12
-4.65062e-09
-1.4248e-12
-4.65049e-09
-8.66202e-13
-4.65044e-09
-1.40457e-13
3.6964e-13
-5.17096e-09
5.53218e-13
-5.17101e-09
3.81937e-13
-5.17105e-09
2.25522e-13
-5.17108e-09
1.36343e-13
-5.1711e-09
1.72424e-14
-5.17109e-09
-2.14599e-13
-5.17104e-09
-5.09479e-13
-5.17095e-09
-6.11253e-13
-5.17089e-09
-1.74182e-13
-5.17093e-09
6.82369e-13
-5.1711e-09
1.70719e-12
-5.17136e-09
2.24246e-12
-5.17159e-09
1.50143e-12
-5.17165e-09
-1.28345e-13
-5.17153e-09
-1.48244e-12
-5.17132e-09
-1.85876e-12
-5.1711e-09
-1.6379e-12
-5.17095e-09
-1.02142e-12
-5.17088e-09
-2.04643e-13
3.91067e-13
-5.74469e-09
6.12261e-13
-5.74474e-09
4.34365e-13
-5.74478e-09
2.65453e-13
-5.74482e-09
1.72387e-13
-5.74485e-09
4.38848e-14
-5.74484e-09
-2.19687e-13
-5.74479e-09
-5.63679e-13
-5.7447e-09
-7.01353e-13
-5.74463e-09
-2.42205e-13
-5.74466e-09
7.13008e-13
-5.74483e-09
1.87956e-12
-5.74511e-09
2.51939e-12
-5.74536e-09
1.7541e-12
-5.74545e-09
-4.43135e-14
-5.74533e-09
-1.59752e-12
-5.7451e-09
-2.08525e-12
-5.74487e-09
-1.8701e-12
-5.7447e-09
-1.1955e-12
-5.74462e-09
-2.85827e-13
4.06771e-13
-6.37674e-09
6.72476e-13
-6.3768e-09
4.91594e-13
-6.37684e-09
3.10689e-13
-6.37688e-09
2.13446e-13
-6.37692e-09
7.54122e-14
-6.37691e-09
-2.21551e-13
-6.37686e-09
-6.17622e-13
-6.37677e-09
-7.94924e-13
-6.37669e-09
-3.18831e-13
-6.37671e-09
7.36762e-13
-6.37689e-09
2.05211e-12
-6.37718e-09
2.80833e-12
-6.37745e-09
2.03183e-12
-6.37756e-09
6.52817e-14
-6.37746e-09
-1.70199e-12
-6.37722e-09
-2.32384e-12
-6.37697e-09
-2.12141e-12
-6.37677e-09
-1.38967e-12
-6.37667e-09
-3.86773e-13
4.14419e-13
-7.0725e-09
7.32662e-13
-7.07256e-09
5.53591e-13
-7.07261e-09
3.61718e-13
-7.07266e-09
2.59856e-13
-7.07269e-09
1.12119e-13
-7.07269e-09
-2.19723e-13
-7.07264e-09
-6.69881e-13
-7.07255e-09
-8.90352e-13
-7.07246e-09
-4.03831e-13
-7.07248e-09
7.52352e-13
-7.07265e-09
2.22149e-12
-7.07294e-09
3.10607e-12
-7.07325e-09
2.33431e-12
-7.07339e-09
2.03908e-13
-7.0733e-09
-1.79078e-12
-7.07305e-09
-2.57158e-12
-7.07278e-09
-2.39231e-12
-7.07256e-09
-1.60594e-12
-7.07244e-09
-5.09481e-13
4.11561e-13
-7.8377e-09
7.91239e-13
-7.83777e-09
6.2013e-13
-7.83783e-09
4.19019e-13
-7.83788e-09
3.11979e-13
-7.83792e-09
1.54165e-13
-7.83793e-09
-2.13633e-13
-7.83788e-09
-7.18971e-13
-7.83778e-09
-9.85858e-13
-7.83769e-09
-4.9644e-13
-7.8377e-09
7.57749e-13
-7.83786e-09
2.38464e-12
-7.83816e-09
3.40992e-12
-7.83849e-09
2.66017e-12
-7.83866e-09
3.74171e-13
-7.83859e-09
-1.8586e-12
-7.83834e-09
-2.82421e-12
-7.83805e-09
-2.68275e-12
-7.83781e-09
-1.84628e-12
-7.83766e-09
-6.56164e-13
3.95473e-13
-8.67848e-09
8.46187e-13
-8.67855e-09
6.90745e-13
-8.67861e-09
4.83023e-13
-8.67867e-09
3.70221e-13
-8.67872e-09
2.01729e-13
-8.67873e-09
-2.02644e-13
-8.67869e-09
-7.63659e-13
-8.67859e-09
-1.07946e-12
-8.67849e-09
-5.95183e-13
-8.67849e-09
7.50706e-13
-8.67864e-09
2.53832e-12
-8.67895e-09
3.71751e-12
-8.67929e-09
3.00711e-12
-8.6795e-09
5.77605e-13
-8.67946e-09
-1.89971e-12
-8.67921e-09
-3.07607e-12
-8.6789e-09
-2.99193e-12
-8.67863e-09
-2.11244e-12
-8.67846e-09
-8.29183e-13
3.62864e-13
-9.60133e-09
8.94974e-13
-9.6014e-09
7.64643e-13
-9.60148e-09
5.5408e-13
-9.60154e-09
4.3505e-13
-9.60159e-09
2.55171e-13
-9.60161e-09
-1.86216e-13
-9.60157e-09
-8.02669e-13
-9.60148e-09
-1.16888e-12
-9.60138e-09
-6.98337e-13
-9.60136e-09
7.29583e-13
-9.6015e-09
2.67859e-12
-9.6018e-09
4.02487e-12
-9.60217e-09
3.3722e-12
-9.60241e-09
8.15782e-13
-9.6024e-09
-1.90774e-12
-9.60216e-09
-3.32028e-12
-9.60183e-09
-3.31853e-12
-9.60154e-09
-2.40604e-12
-9.60133e-09
-1.03052e-12
3.10035e-13
-1.06132e-08
9.34494e-13
-1.06132e-08
8.40629e-13
-1.06133e-08
6.32391e-13
-1.06134e-08
5.06913e-13
-1.06134e-08
3.14726e-13
-1.06135e-08
-1.63765e-13
-1.06134e-08
-8.34388e-13
-1.06134e-08
-1.25166e-12
-1.06132e-08
-8.03868e-13
-1.06132e-08
6.93102e-13
-1.06133e-08
2.80118e-12
-1.06136e-08
4.32585e-12
-1.0614e-08
3.75159e-12
-1.06143e-08
1.09081e-12
-1.06143e-08
-1.87612e-12
-1.06141e-08
-3.54937e-12
-1.06137e-08
-3.65959e-12
-1.06134e-08
-2.72732e-12
-1.06132e-08
-1.26267e-12
2.32829e-13
-1.17213e-08
9.60974e-13
-1.17213e-08
9.17031e-13
-1.17214e-08
7.17952e-13
-1.17215e-08
5.8599e-13
-1.17216e-08
3.80627e-13
-1.17216e-08
-1.34431e-13
-1.17216e-08
-8.57321e-13
-1.17215e-08
-1.32517e-12
-1.17214e-08
-9.08946e-13
-1.17213e-08
6.40529e-13
-1.17214e-08
2.90144e-12
-1.17217e-08
4.61287e-12
-1.17221e-08
4.1403e-12
-1.17224e-08
1.40441e-12
-1.17225e-08
-1.79806e-12
-1.17223e-08
-3.75433e-12
-1.1722e-08
-4.01141e-12
-1.17216e-08
-3.07581e-12
-1.17213e-08
-1.52742e-12
1.26537e-13
-1.29334e-08
9.69912e-13
-1.29335e-08
9.91661e-13
-1.29335e-08
8.10436e-13
-1.29336e-08
6.72374e-13
-1.29337e-08
4.53187e-13
-1.29337e-08
-9.73699e-14
-1.29337e-08
-8.70133e-13
-1.29337e-08
-1.38679e-12
-1.29336e-08
-1.01006e-12
-1.29335e-08
5.71826e-13
-1.29336e-08
2.97456e-12
-1.29338e-08
4.87872e-12
-1.29342e-08
4.53228e-12
-1.29346e-08
1.75574e-12
-1.29347e-08
-1.66685e-12
-1.29345e-08
-3.92468e-12
-1.29342e-08
-4.36939e-12
-1.29338e-08
-3.44999e-12
-1.29335e-08
-1.82539e-12
-1.42724e-14
-1.42577e-08
9.56047e-13
-1.42577e-08
1.06169e-12
-1.42578e-08
9.09141e-13
-1.42579e-08
7.66256e-13
-1.4258e-08
5.32439e-13
-1.4258e-08
-5.1918e-14
-1.4258e-08
-8.71254e-13
-1.4258e-08
-1.43395e-12
-1.42579e-08
-1.10398e-12
-1.42578e-08
4.88226e-13
-1.42579e-08
3.0167e-12
-1.42581e-08
5.11634e-12
-1.42585e-08
4.92039e-12
-1.42589e-08
2.14091e-12
-1.42591e-08
-1.47623e-12
-1.42589e-08
-4.04881e-12
-1.42586e-08
-4.72691e-12
-1.42582e-08
-3.84767e-12
-1.42578e-08
-2.15712e-12
-1.94534e-13
-1.57027e-08
9.13364e-13
-1.57027e-08
1.12356e-12
-1.57028e-08
1.01287e-12
-1.57029e-08
8.67492e-13
-1.5703e-08
6.18495e-13
-1.57031e-08
2.84721e-15
-1.57031e-08
-8.59319e-13
-1.57031e-08
-1.46429e-12
-1.5703e-08
-1.18737e-12
-1.57029e-08
3.918e-13
-1.57029e-08
3.02469e-12
-1.57031e-08
5.31806e-12
-1.57035e-08
5.29631e-12
-1.57039e-08
2.55596e-12
-1.57041e-08
-1.22241e-12
-1.57041e-08
-4.11564e-12
-1.57037e-08
-5.0715e-12
-1.57033e-08
-4.26747e-12
-1.57029e-08
-2.52523e-12
-4.16446e-13
-1.72775e-08
8.35291e-13
-1.72775e-08
1.17287e-12
-1.72776e-08
1.11979e-12
-1.72777e-08
9.75985e-13
-1.72778e-08
7.11754e-13
-1.72779e-08
6.76583e-14
-1.72779e-08
-8.33481e-13
-1.72779e-08
-1.47574e-12
-1.72778e-08
-1.25661e-12
-1.72777e-08
2.85564e-13
-1.72777e-08
2.99527e-12
-1.72779e-08
5.47603e-12
-1.72782e-08
5.65155e-12
-1.72787e-08
2.99418e-12
-1.7279e-08
-9.03505e-13
-1.7279e-08
-4.1129e-12
-1.72787e-08
-5.3894e-12
-1.72782e-08
-4.70504e-12
-1.72778e-08
-2.9303e-12
-6.83193e-13
-1.89916e-08
7.15176e-13
-1.89916e-08
1.20434e-12
-1.89917e-08
1.22733e-12
-1.89918e-08
1.09155e-12
-1.89919e-08
8.12473e-13
-1.8992e-08
1.42691e-13
-1.8992e-08
-7.92934e-13
-1.8992e-08
-1.46675e-12
-1.8992e-08
-1.30812e-12
-1.89919e-08
1.73695e-13
-1.89918e-08
2.92669e-12
-1.89919e-08
5.58241e-12
-1.89922e-08
5.97665e-12
-1.89927e-08
3.44532e-12
-1.89931e-08
-5.20961e-13
-1.89932e-08
-4.02621e-12
-1.89929e-08
-5.6644e-12
-1.89924e-08
-5.15433e-12
-1.8992e-08
-3.37138e-12
-9.97461e-13
-2.0855e-08
5.46489e-13
-2.0855e-08
1.21175e-12
-2.08551e-08
1.33192e-12
-2.08552e-08
1.21322e-12
-2.08553e-08
9.20874e-13
-2.08554e-08
2.27787e-13
-2.08554e-08
-7.37164e-13
-2.08555e-08
-1.43588e-12
-2.08554e-08
-1.33871e-12
-2.08553e-08
6.12452e-14
-2.08552e-08
2.81953e-12
-2.08553e-08
5.63015e-12
-2.08556e-08
6.26402e-12
-2.0856e-08
3.89898e-12
-2.08564e-08
-8.26523e-14
-2.08566e-08
-3.84362e-12
-2.08564e-08
-5.87785e-12
-2.0856e-08
-5.60816e-12
-2.08555e-08
-3.84613e-12
-1.36004e-12
-2.28782e-08
3.21783e-13
-2.28782e-08
1.18822e-12
-2.28783e-08
1.42893e-12
-2.28784e-08
1.33939e-12
-2.28785e-08
1.03707e-12
-2.28786e-08
3.22617e-13
-2.28787e-08
-6.6575e-13
-2.28787e-08
-1.38171e-12
-2.28787e-08
-1.34575e-12
-2.28786e-08
-4.6631e-14
-2.28785e-08
2.6767e-12
-2.28785e-08
5.61334e-12
-2.28787e-08
6.50593e-12
-2.28791e-08
4.34816e-12
-2.28796e-08
4.02269e-13
-2.28799e-08
-3.56311e-12
-2.28798e-08
-6.01242e-12
-2.28793e-08
-6.05493e-12
-2.28788e-08
-4.34975e-12
-1.76861e-12
-2.50724e-08
3.55922e-14
-2.50723e-08
1.12554e-12
-2.50724e-08
1.51204e-12
-2.50725e-08
1.46776e-12
-2.50727e-08
1.16087e-12
-2.50728e-08
4.27047e-13
-2.50729e-08
-5.78046e-13
-2.50729e-08
-1.30371e-12
-2.5073e-08
-1.32744e-12
-2.50729e-08
-1.44533e-13
-2.50727e-08
2.50351e-12
-2.50726e-08
5.52508e-12
-2.50728e-08
6.6922e-12
-2.50732e-08
4.78524e-12
-2.50737e-08
9.23123e-13
-2.50741e-08
-3.18378e-12
-2.50741e-08
-6.05046e-12
-2.50737e-08
-6.47871e-12
-2.50731e-08
-4.8753e-12
-2.22027e-12
-2.74493e-08
-3.09803e-13
-2.74492e-08
1.01488e-12
-2.74493e-08
1.57335e-12
-2.74494e-08
1.59488e-12
-2.74495e-08
1.29202e-12
-2.74496e-08
5.4238e-13
-2.74497e-08
-4.73703e-13
-2.74498e-08
-1.20373e-12
-2.74499e-08
-1.28296e-12
-2.74498e-08
-2.26705e-13
-2.74496e-08
2.30619e-12
-2.74494e-08
5.36271e-12
-2.74496e-08
6.80699e-12
-2.745e-08
5.1954e-12
-2.74505e-08
1.4742e-12
-2.7451e-08
-2.70603e-12
-2.74511e-08
-5.97592e-12
-2.74507e-08
-6.85237e-12
-2.74502e-08
-5.41768e-12
-2.71834e-12
-3.00214e-08
-7.13272e-13
-3.00212e-08
8.46874e-13
-3.00213e-08
1.60402e-12
-3.00214e-08
1.71594e-12
-3.00215e-08
1.43022e-12
-3.00217e-08
6.70391e-13
-3.00218e-08
-3.53631e-13
-3.00219e-08
-1.08521e-12
-3.0022e-08
-1.21166e-12
-3.00219e-08
-2.87037e-13
-3.00217e-08
2.09209e-12
-3.00215e-08
5.12769e-12
-3.00215e-08
6.83621e-12
-3.00219e-08
5.562e-12
-3.00224e-08
2.04616e-12
-3.0023e-08
-2.13575e-12
-3.00232e-08
-5.77493e-12
-3.00229e-08
-7.14882e-12
-3.00224e-08
-5.96625e-12
-3.25926e-12
-3.2802e-08
-1.16838e-12
-3.28017e-08
6.11618e-13
-3.28017e-08
1.59434e-12
-3.28018e-08
1.82458e-12
-3.2802e-08
1.57436e-12
-3.28021e-08
8.10809e-13
-3.28023e-08
-2.19133e-13
-3.28024e-08
-9.4969e-13
-3.28025e-08
-1.1148e-12
-3.28025e-08
-3.20092e-13
-3.28022e-08
1.87038e-12
-3.28019e-08
4.82561e-12
-3.28019e-08
6.76217e-12
-3.28022e-08
5.87448e-12
-3.28028e-08
2.63363e-12
-3.28034e-08
-1.49355e-12
-3.28037e-08
-5.43738e-12
-3.28036e-08
-7.33786e-12
-3.2803e-08
-6.50927e-12
-3.83605e-12
-3.58052e-08
-1.67742e-12
-3.58049e-08
3.13293e-13
-3.58048e-08
1.53406e-12
-3.58049e-08
1.91256e-12
-3.58051e-08
1.72027e-12
-3.58052e-08
9.62418e-13
-3.58054e-08
-6.9805e-14
-3.58055e-08
-7.98895e-13
-3.58056e-08
-9.91445e-13
-3.58056e-08
-3.24964e-13
-3.58054e-08
1.64746e-12
-3.58051e-08
4.4703e-12
-3.58049e-08
6.58099e-12
-3.58051e-08
6.11553e-12
-3.58057e-08
3.21552e-12
-3.58064e-08
-7.96393e-13
-3.58069e-08
-4.95963e-12
-3.58068e-08
-7.39457e-12
-3.58063e-08
-7.01474e-12
-4.44878e-12
-3.90463e-08
-2.24247e-12
-3.9046e-08
-4.23632e-14
-3.90458e-08
1.41309e-12
-3.90459e-08
1.96949e-12
-3.9046e-08
1.86076e-12
-3.90462e-08
1.12424e-12
-3.90464e-08
9.56104e-14
-3.90465e-08
-6.35126e-13
-3.90467e-08
-8.44414e-13
-3.90467e-08
-3.0034e-13
-3.90465e-08
1.43255e-12
-3.90461e-08
4.07504e-12
-3.90458e-08
6.29344e-12
-3.9046e-08
6.27535e-12
-3.90465e-08
3.76345e-12
-3.90472e-08
-7.36487e-14
-3.90478e-08
-4.33836e-12
-3.90479e-08
-7.29436e-12
-3.90475e-08
-7.44552e-12
-5.09067e-12
-4.25418e-08
-2.85273e-12
-4.25414e-08
-4.54118e-13
-4.25412e-08
1.21872e-12
-4.25412e-08
1.98479e-12
-4.25413e-08
1.98966e-12
-4.25415e-08
1.29408e-12
-4.25417e-08
2.75377e-13
-4.25419e-08
-4.6096e-13
-4.2542e-08
-6.785e-13
-4.25421e-08
-2.44887e-13
-4.25419e-08
1.23565e-12
-4.25415e-08
3.65183e-12
-4.25411e-08
5.90503e-12
-4.25411e-08
6.32752e-12
-4.25416e-08
4.26634e-12
-4.25424e-08
6.64761e-13
-4.25431e-08
-3.60013e-12
-4.25434e-08
-7.01749e-12
-4.25431e-08
-7.76401e-12
-5.74518e-12
-4.63095e-08
-3.5067e-12
-4.6309e-08
-9.31418e-13
-4.63088e-08
9.56875e-13
-4.63087e-08
1.94657e-12
-4.63088e-08
2.09885e-12
-4.6309e-08
1.46804e-12
-4.63092e-08
4.66626e-13
-4.63094e-08
-2.77359e-13
-4.63096e-08
-4.98591e-13
-4.63097e-08
-1.60053e-13
-4.63095e-08
1.06519e-12
-4.6309e-08
3.21419e-12
-4.63086e-08
5.42905e-12
-4.63085e-08
6.25665e-12
-4.63089e-08
4.71023e-12
-4.63097e-08
1.4015e-12
-4.63105e-08
-2.77625e-12
-4.6311e-08
-6.55785e-12
-4.63108e-08
-7.93962e-12
-6.37019e-12
-5.03689e-08
-4.19721e-12
-5.03683e-08
-1.47046e-12
-5.0368e-08
6.36214e-13
-5.03679e-08
1.84019e-12
-5.0368e-08
2.17685e-12
-5.03681e-08
1.64045e-12
-5.03683e-08
6.67884e-13
-5.03685e-08
-8.64184e-14
-5.03687e-08
-3.07836e-13
-5.03688e-08
-5.03012e-14
-5.03687e-08
9.25124e-13
-5.03683e-08
2.77803e-12
-5.03677e-08
4.88437e-12
-5.03675e-08
6.04512e-12
-5.03679e-08
5.08254e-12
-5.03686e-08
2.12393e-12
-5.03695e-08
-1.90954e-12
-5.03701e-08
-5.91518e-12
-5.03701e-08
-7.94093e-12
-6.92707e-12
-5.47411e-08
-4.90637e-12
-5.47405e-08
-2.06258e-12
-5.47401e-08
2.60501e-13
-5.47399e-08
1.65891e-12
-5.47399e-08
2.21089e-12
-5.47401e-08
1.80354e-12
-5.47403e-08
8.76729e-13
-5.47405e-08
1.07867e-13
-5.47407e-08
-1.098e-13
-5.47408e-08
7.9708e-14
-5.47407e-08
8.17876e-13
-5.47403e-08
2.35795e-12
-5.47397e-08
4.29649e-12
-5.47394e-08
5.68981e-12
-5.47396e-08
5.33841e-12
-5.47403e-08
2.83079e-12
-5.47412e-08
-1.01279e-12
-5.4742e-08
-5.12463e-12
-5.47422e-08
-7.74236e-12
-7.37517e-12
-5.94493e-08
-5.58937e-12
-5.94487e-08
-2.7104e-12
-5.94482e-08
-1.9073e-13
-5.9448e-08
1.41524e-12
-5.9448e-08
2.19081e-12
-5.94481e-08
1.94601e-12
-5.94483e-08
1.08728e-12
-5.94485e-08
3.0521e-13
-5.94487e-08
9.14601e-14
-5.94489e-08
2.24325e-13
-5.94488e-08
7.42813e-13
-5.94484e-08
1.96531e-12
-5.94478e-08
3.68621e-12
-5.94473e-08
5.21566e-12
-5.94474e-08
5.44185e-12
-5.94481e-08
3.48771e-12
-5.9449e-08
-9.94764e-14
-5.94499e-08
-4.22393e-12
-5.94503e-08
-7.32383e-12
-7.66639e-12
-6.4519e-08
-6.2031e-12
-6.45183e-08
-3.39955e-12
-6.45178e-08
-7.10179e-13
-6.45175e-08
1.11485e-12
-6.45174e-08
2.10096e-12
-6.45175e-08
2.05391e-12
-6.45177e-08
1.2913e-12
-6.45179e-08
5.05669e-13
-6.45181e-08
2.93324e-13
-6.45183e-08
3.75918e-13
-6.45182e-08
6.96816e-13
-6.45179e-08
1.60961e-12
-6.45173e-08
3.07592e-12
-6.45167e-08
4.64435e-12
-6.45166e-08
5.38233e-12
-6.45172e-08
4.05767e-12
-6.45181e-08
7.86037e-13
-6.45191e-08
-3.23347e-12
-6.45197e-08
-6.68163e-12
-7.76496e-12
-6.99779e-08
-6.70549e-12
-6.99772e-08
-4.09529e-12
-6.99766e-08
-1.28953e-12
-6.99763e-08
7.53209e-13
-6.99761e-08
1.9368e-12
-6.99762e-08
2.11522e-12
-6.99764e-08
1.48004e-12
-6.99766e-08
7.02725e-13
-6.99768e-08
4.91939e-13
-6.99769e-08
5.29035e-13
-6.99769e-08
6.74777e-13
-6.99766e-08
1.29719e-12
-6.9976e-08
2.48637e-12
-6.99754e-08
4.0103e-12
-6.99751e-08
5.15646e-12
-6.99756e-08
4.49788e-12
-6.99764e-08
1.64604e-12
-6.99775e-08
-2.1885e-12
-6.99783e-08
-5.86149e-12
-7.64192e-12
-7.58564e-08
-7.04301e-12
-7.58557e-08
-4.76425e-12
-7.58551e-08
-1.92019e-12
-7.58547e-08
3.32409e-13
-7.58544e-08
1.70325e-12
-7.58544e-08
2.11389e-12
-7.58546e-08
1.64209e-12
-7.58548e-08
8.92531e-13
-7.5855e-08
6.83394e-13
-7.58551e-08
6.7693e-13
-7.58551e-08
6.69915e-13
-7.58549e-08
1.03072e-12
-7.58543e-08
1.93526e-12
-7.58537e-08
3.34537e-12
-7.58533e-08
4.77828e-12
-7.58536e-08
4.78534e-12
-7.58544e-08
2.46102e-12
-7.58554e-08
-1.13837e-12
-7.58564e-08
-4.91087e-12
-7.27795e-12
-8.21876e-08
-7.17346e-12
-8.2187e-08
-5.36713e-12
-8.21863e-08
-2.58495e-12
-8.21858e-08
-1.46228e-13
-8.21856e-08
1.4119e-12
-8.21855e-08
2.04489e-12
-8.21856e-08
1.76232e-12
-8.21858e-08
1.07165e-12
-8.2186e-08
8.64171e-13
-8.21861e-08
8.12914e-13
-8.21861e-08
6.74311e-13
-8.21859e-08
8.08987e-13
-8.21854e-08
1.43613e-12
-8.21847e-08
2.67823e-12
-8.21842e-08
4.27625e-12
-8.21843e-08
4.88686e-12
-8.2185e-08
3.19254e-12
-8.21861e-08
-1.14272e-13
-8.21871e-08
-3.86627e-12
-6.67307e-12
-8.90075e-08
-7.06832e-12
-8.9007e-08
-5.8492e-12
-8.90064e-08
-3.2494e-12
-8.90058e-08
-6.82811e-13
-8.90055e-08
1.06649e-12
-8.90053e-08
1.9074e-12
-8.90054e-08
1.82873e-12
-8.90056e-08
1.23154e-12
-8.90057e-08
1.03022e-12
-8.90059e-08
9.31166e-13
-8.90059e-08
6.79534e-13
-8.90057e-08
6.27297e-13
-8.90052e-08
9.97172e-13
-8.90046e-08
2.03592e-12
-8.9004e-08
3.68898e-12
-8.90039e-08
4.80645e-12
-8.90045e-08
3.8082e-12
-8.90055e-08
8.33135e-13
-8.90066e-08
-2.78159e-12
-5.84515e-12
-9.63553e-08
-6.71889e-12
-9.6355e-08
-6.15502e-12
-9.63543e-08
-3.86564e-12
-9.63538e-08
-1.26656e-12
-9.63534e-08
6.67831e-13
-9.63532e-08
1.70494e-12
-9.63532e-08
1.82777e-12
-9.63533e-08
1.36247e-12
-9.63534e-08
1.17672e-12
-9.63535e-08
1.02691e-12
-9.63535e-08
6.77504e-13
-9.63534e-08
4.78153e-13
-9.6353e-08
6.20407e-13
-9.63524e-08
1.44167e-12
-9.63518e-08
3.06373e-12
-9.63515e-08
4.55432e-12
-9.6352e-08
4.25013e-12
-9.63529e-08
1.7196e-12
-9.63539e-08
-1.69156e-12
-4.87874e-12
-1.04273e-07
-6.13213e-12
-1.04273e-07
-6.2423e-12
-1.04272e-07
-4.39398e-12
-1.04272e-07
-1.85965e-12
-1.04271e-07
2.18679e-13
-1.04271e-07
1.43819e-12
-1.04271e-07
1.76121e-12
-1.04271e-07
1.45454e-12
-1.04271e-07
1.29778e-12
-1.04271e-07
1.09601e-12
-1.04271e-07
6.61486e-13
-1.04271e-07
3.51838e-13
-1.04271e-07
3.02226e-13
-1.0427e-07
9.12057e-13
-1.0427e-07
2.44094e-12
-1.04269e-07
4.16238e-12
-1.0427e-07
4.49727e-12
-1.0427e-07
2.51652e-12
-1.04271e-07
-6.51309e-13
-3.83599e-12
-1.12806e-07
-5.33638e-12
-1.12807e-07
-6.08459e-12
-1.12806e-07
-4.77523e-12
-1.12806e-07
-2.43364e-12
-1.12805e-07
-2.70413e-13
-1.12805e-07
1.11983e-12
-1.12805e-07
1.63253e-12
-1.12805e-07
1.49723e-12
-1.12805e-07
1.38522e-12
-1.12805e-07
1.1354e-12
-1.12805e-07
6.27214e-13
-1.12805e-07
2.3699e-13
-1.12805e-07
3.48006e-14
-1.12804e-07
4.55447e-13
-1.12803e-07
1.85211e-12
-1.12803e-07
3.68003e-12
-1.12803e-07
4.54595e-12
-1.12804e-07
3.1973e-12
-1.12805e-07
2.7755e-13
-2.78158e-12
-1.22004e-07
-4.43569e-12
-1.22005e-07
-5.69733e-12
-1.22005e-07
-4.97024e-12
-1.22004e-07
-2.93639e-12
-1.22004e-07
-7.71826e-13
-1.22003e-07
7.53618e-13
-1.22003e-07
1.44667e-12
-1.22003e-07
1.4869e-12
-1.22003e-07
1.43076e-12
-1.22003e-07
1.14232e-12
-1.22003e-07
5.7294e-13
-1.22003e-07
1.22812e-13
-1.22003e-07
-1.94125e-13
-1.22002e-07
7.19857e-14
-1.22002e-07
1.32219e-12
-1.22001e-07
3.16567e-12
-1.22001e-07
4.41299e-12
-1.22002e-07
3.6794e-12
-1.22003e-07
1.12397e-12
-1.73084e-12
-1.31919e-07
-3.49312e-12
-1.3192e-07
-5.11072e-12
-1.3192e-07
-4.95281e-12
-1.3192e-07
-3.32241e-12
-1.31919e-07
-1.25049e-12
-1.31919e-07
3.57434e-13
-1.31919e-07
1.2117e-12
-1.31918e-07
1.42353e-12
-1.31918e-07
1.4286e-12
-1.31918e-07
1.11374e-12
-1.31918e-07
4.97148e-13
-1.31918e-07
7.28092e-16
-1.31918e-07
-3.97409e-13
-1.31918e-07
-2.46073e-13
-1.31917e-07
8.66626e-13
-1.31917e-07
2.66012e-12
-1.31916e-07
4.1457e-12
-1.31917e-07
3.9718e-12
-1.31917e-07
1.86456e-12
-7.72881e-13
-1.42607e-07
-2.58155e-12
-1.42608e-07
-4.37225e-12
-1.42608e-07
-4.71705e-12
-1.42608e-07
-3.54423e-12
-1.42608e-07
-1.67273e-12
-1.42607e-07
-4.24926e-14
-1.42607e-07
9.40666e-13
-1.42607e-07
1.30948e-12
-1.42607e-07
1.37652e-12
-1.42607e-07
1.04876e-12
-1.42607e-07
4.01325e-13
-1.42607e-07
-1.33694e-13
-1.42606e-07
-5.91528e-13
-1.42606e-07
-5.12647e-13
-1.42606e-07
4.90132e-13
-1.42605e-07
2.19737e-12
-1.42605e-07
3.79907e-12
-1.42605e-07
4.07826e-12
-1.42606e-07
2.47904e-12
4.33468e-14
-1.54128e-07
-1.7193e-12
-1.54129e-07
-3.58026e-12
-1.54129e-07
-4.3059e-12
-1.54129e-07
-3.58199e-12
-1.54129e-07
-1.99299e-12
-1.54129e-07
-4.121e-13
-1.54128e-07
6.52949e-13
-1.54128e-07
1.15182e-12
-1.54128e-07
1.27713e-12
-1.54128e-07
9.48732e-13
-1.54128e-07
2.87588e-13
-1.54128e-07
-2.82505e-13
-1.54128e-07
-7.90714e-13
-1.54127e-07
-7.45336e-13
-1.54127e-07
1.86969e-13
-1.54127e-07
1.79942e-12
-1.54126e-07
3.42904e-12
-1.54126e-07
4.03346e-12
-1.54127e-07
2.90381e-12
7.35967e-13
-1.66546e-07
-9.78368e-13
-1.66547e-07
-2.81393e-12
-1.66547e-07
-3.76411e-12
-1.66548e-07
-3.43461e-12
-1.66547e-07
-2.1722e-12
-1.66547e-07
-7.17164e-13
-1.66547e-07
3.74349e-13
-1.66547e-07
9.64124e-13
-1.66546e-07
1.13779e-12
-1.66546e-07
8.15987e-13
-1.66546e-07
1.54436e-13
-1.66546e-07
-4.44325e-13
-1.66546e-07
-9.99615e-13
-1.66546e-07
-9.62721e-13
-1.66545e-07
-5.70011e-14
-1.66545e-07
1.47471e-12
-1.66545e-07
3.08805e-12
-1.66544e-07
3.88263e-12
-1.66545e-07
3.1433e-12
1.30447e-12
-1.79929e-07
-3.77438e-13
-1.79929e-07
-2.11457e-12
-1.7993e-07
-3.15557e-12
-1.7993e-07
-3.13352e-12
-1.7993e-07
-2.18926e-12
-1.7993e-07
-9.23128e-13
-1.7993e-07
1.35448e-13
-1.7993e-07
7.6715e-13
-1.7993e-07
9.70735e-13
-1.79929e-07
6.59325e-13
-1.79929e-07
1.13521e-14