/*--------------------------------*- C++ -*----------------------------------*\
  =========                 |
  \\      /  F ield         | OpenFOAM: The Open Source CFD Toolbox
   \\    /   O peration     | Website:  https://openfoam.org
    \\  /    A nd           | Version:  6
     \\/     M anipulation  |
\*---------------------------------------------------------------------------*/
FoamFile
{
    version     2.0;
    format      ascii;
    class       volScalarField;
    location    "19.44";
    object      p;
}
// * * * * * * * * * * * * * * * * * * * * * * * * * * * * * * * * * * * * * //

dimensions      [0 2 -2 0 0 0 0];

internalField   nonuniform List<scalar> 
3240
(
-1.81672e-14
-4.32791e-10
-1.12996e-09
-1.32419e-09
-1.58767e-09
-1.60188e-09
-1.63133e-09
-1.60823e-09
-1.64008e-09
-1.6501e-09
-1.67654e-09
-1.55343e-09
-1.30011e-09
-1.01284e-09
-7.29728e-10
-5.68993e-10
-3.90539e-10
-3.98574e-10
-3.09877e-10
-1.63791e-10
1.11905e-12
-4.32152e-10
-1.12986e-09
-1.32422e-09
-1.58777e-09
-1.60195e-09
-1.63129e-09
-1.60805e-09
-1.63981e-09
-1.64989e-09
-1.67657e-09
-1.55387e-09
-1.30095e-09
-1.01379e-09
-7.30488e-10
-5.69423e-10
-3.90648e-10
-3.98372e-10
-3.09594e-10
-1.63114e-10
2.22633e-12
-4.31196e-10
-1.12956e-09
-1.32416e-09
-1.58789e-09
-1.60206e-09
-1.63126e-09
-1.60778e-09
-1.63937e-09
-1.64949e-09
-1.67648e-09
-1.55434e-09
-1.30197e-09
-1.01502e-09
-7.31483e-10
-5.70037e-10
-3.90845e-10
-3.98164e-10
-3.09216e-10
-1.62609e-10
2.58335e-12
-4.30034e-10
-1.12896e-09
-1.32394e-09
-1.58798e-09
-1.60222e-09
-1.63128e-09
-1.60747e-09
-1.63877e-09
-1.64882e-09
-1.67608e-09
-1.55455e-09
-1.3028e-09
-1.01616e-09
-7.32511e-10
-5.70755e-10
-3.91179e-10
-3.98085e-10
-3.08842e-10
-1.62831e-10
2.34214e-12
-4.28696e-10
-1.12811e-09
-1.32359e-09
-1.58805e-09
-1.60244e-09
-1.63135e-09
-1.60712e-09
-1.63803e-09
-1.64791e-09
-1.67543e-09
-1.55453e-09
-1.30351e-09
-1.01728e-09
-7.33606e-10
-5.71582e-10
-3.91635e-10
-3.98106e-10
-3.08452e-10
-1.63624e-10
1.67426e-12
-4.27211e-10
-1.12704e-09
-1.32312e-09
-1.5881e-09
-1.60268e-09
-1.63143e-09
-1.60673e-09
-1.63717e-09
-1.64684e-09
-1.67462e-09
-1.55442e-09
-1.30419e-09
-1.01842e-09
-7.34763e-10
-5.72481e-10
-3.92157e-10
-3.98168e-10
-3.08021e-10
-1.6482e-10
6.52892e-13
-4.25602e-10
-1.12577e-09
-1.32254e-09
-1.58811e-09
-1.60294e-09
-1.63151e-09
-1.60629e-09
-1.63622e-09
-1.64564e-09
-1.6737e-09
-1.55425e-09
-1.30487e-09
-1.01962e-09
-7.35978e-10
-5.73432e-10
-3.92721e-10
-3.98254e-10
-3.07543e-10
-1.66343e-10
-6.92991e-13
-4.23892e-10
-1.12433e-09
-1.32187e-09
-1.58808e-09
-1.6032e-09
-1.6316e-09
-1.60582e-09
-1.63518e-09
-1.64434e-09
-1.67271e-09
-1.55404e-09
-1.30557e-09
-1.02085e-09
-7.37239e-10
-5.7442e-10
-3.93318e-10
-3.98354e-10
-3.07019e-10
-1.68158e-10
-2.34051e-12
-4.22097e-10
-1.12276e-09
-1.32109e-09
-1.58802e-09
-1.60347e-09
-1.63168e-09
-1.60531e-09
-1.63406e-09
-1.64295e-09
-1.67164e-09
-1.55381e-09
-1.30628e-09
-1.02212e-09
-7.38541e-10
-5.75439e-10
-3.93942e-10
-3.98465e-10
-3.0645e-10
-1.70237e-10
-4.25699e-12
-4.20226e-10
-1.12101e-09
-1.32021e-09
-1.58792e-09
-1.60373e-09
-1.63177e-09
-1.60478e-09
-1.63289e-09
-1.64149e-09
-1.67048e-09
-1.55353e-09
-1.30699e-09
-1.02342e-09
-7.39896e-10
-5.76504e-10
-3.94606e-10
-3.98596e-10
-3.05845e-10
-1.72549e-10
-6.41199e-12
-4.18287e-10
-1.1191e-09
-1.31924e-09
-1.58777e-09
-1.60398e-09
-1.63186e-09
-1.60424e-09
-1.63167e-09
-1.63999e-09
-1.66924e-09
-1.55319e-09
-1.30768e-09
-1.02475e-09
-7.41299e-10
-5.77617e-10
-3.95306e-10
-3.98752e-10
-3.05218e-10
-1.75078e-10
-8.89381e-12
-4.16299e-10
-1.11707e-09
-1.3182e-09
-1.58758e-09
-1.60421e-09
-1.63191e-09
-1.60363e-09
-1.63039e-09
-1.63848e-09
-1.66806e-09
-1.553e-09
-1.30849e-09
-1.0261e-09
-7.42627e-10
-5.78625e-10
-3.95921e-10
-3.98844e-10
-3.04517e-10
-1.77839e-10
-1.25194e-11
-4.13656e-10
-1.11424e-09
-1.31673e-09
-1.58725e-09
-1.60447e-09
-1.63193e-09
-1.60279e-09
-1.62865e-09
-1.63649e-09
-1.66655e-09
-1.55287e-09
-1.30966e-09
-1.0279e-09
-7.44326e-10
-5.79871e-10
-3.96662e-10
-3.98915e-10
-3.03526e-10
-1.81705e-10
-1.76946e-11
-4.10282e-10
-1.11041e-09
-1.31465e-09
-1.58669e-09
-1.60472e-09
-1.63194e-09
-1.60167e-09
-1.62639e-09
-1.63394e-09
-1.66461e-09
-1.55273e-09
-1.31117e-09
-1.03017e-09
-7.46449e-10
-5.81412e-10
-3.97565e-10
-3.98996e-10
-3.02207e-10
-1.87e-10
-2.38504e-11
-4.06717e-10
-1.10605e-09
-1.31223e-09
-1.58594e-09
-1.60489e-09
-1.63193e-09
-1.60042e-09
-1.62391e-09
-1.63117e-09
-1.66254e-09
-1.55264e-09
-1.31283e-09
-1.0326e-09
-7.48667e-10
-5.82999e-10
-3.98499e-10
-3.99054e-10
-3.0073e-10
-1.93024e-10
-3.1e-11
-4.03007e-10
-1.10113e-09
-1.30943e-09
-1.58494e-09
-1.60497e-09
-1.63191e-09
-1.59909e-09
-1.62123e-09
-1.62815e-09
-1.66024e-09
-1.55244e-09
-1.31452e-09
-1.0352e-09
-7.51083e-10
-5.84749e-10
-3.99536e-10
-3.99171e-10
-2.99136e-10
-1.99764e-10
-3.92819e-11
-3.99239e-10
-1.09563e-09
-1.30623e-09
-1.58366e-09
-1.60494e-09
-1.63181e-09
-1.59765e-09
-1.61835e-09
-1.6249e-09
-1.65777e-09
-1.55223e-09
-1.31632e-09
-1.03794e-09
-7.53616e-10
-5.86575e-10
-4.00483e-10
-3.99431e-10
-2.97419e-10
-2.07236e-10
-4.87905e-11
-3.95508e-10
-1.08954e-09
-1.30258e-09
-1.58207e-09
-1.60479e-09
-1.63162e-09
-1.59609e-09
-1.61528e-09
-1.62142e-09
-1.65514e-09
-1.55202e-09
-1.3182e-09
-1.0408e-09
-7.56239e-10
-5.88461e-10
-4.01303e-10
-3.99876e-10
-2.95577e-10
-2.15433e-10
-5.96385e-11
-3.91924e-10
-1.08287e-09
-1.29846e-09
-1.58008e-09
-1.60448e-09
-1.6313e-09
-1.59443e-09
-1.61204e-09
-1.61774e-09
-1.65235e-09
-1.55178e-09
-1.32013e-09
-1.04375e-09
-7.58921e-10
-5.90388e-10
-4.0208e-10
-4.00457e-10
-2.93622e-10
-2.24296e-10
-7.19365e-11
-3.88612e-10
-1.07563e-09
-1.29387e-09
-1.57765e-09
-1.60394e-09
-1.63086e-09
-1.59266e-09
-1.60866e-09
-1.61386e-09
-1.64953e-09
-1.55139e-09
-1.32208e-09
-1.04673e-09
-7.61627e-10
-5.92336e-10
-4.02806e-10
-4.01221e-10
-2.91605e-10
-2.33727e-10
-8.57674e-11
-3.85717e-10
-1.06786e-09
-1.28878e-09
-1.57475e-09
-1.60309e-09
-1.6303e-09
-1.59081e-09
-1.60516e-09
-1.60981e-09
-1.64706e-09
-1.55044e-09
-1.324e-09
-1.04969e-09
-7.64315e-10
-5.94282e-10
-4.03441e-10
-4.02216e-10
-2.89598e-10
-2.43654e-10
-1.01192e-10
-3.83391e-10
-1.05963e-09
-1.28316e-09
-1.57131e-09
-1.60184e-09
-1.62962e-09
-1.58889e-09
-1.60156e-09
-1.60562e-09
-1.64499e-09
-1.54886e-09
-1.32589e-09
-1.05252e-09
-7.66936e-10
-5.96189e-10
-4.03944e-10
-4.03489e-10
-2.87637e-10
-2.54062e-10
-1.18254e-10
-3.81801e-10
-1.05103e-09
-1.27701e-09
-1.5673e-09
-1.60012e-09
-1.62881e-09
-1.5869e-09
-1.5979e-09
-1.6013e-09
-1.64298e-09
-1.54698e-09
-1.32777e-09
-1.05506e-09
-7.69429e-10
-5.98012e-10
-4.04307e-10
-4.05068e-10
-2.85747e-10
-2.64948e-10
-1.36975e-10
-3.81121e-10
-1.04215e-09
-1.27034e-09
-1.56267e-09
-1.59789e-09
-1.62781e-09
-1.58484e-09
-1.59424e-09
-1.59691e-09
-1.64087e-09
-1.54492e-09
-1.32949e-09
-1.0573e-09
-7.71721e-10
-5.99696e-10
-4.0458e-10
-4.06926e-10
-2.83988e-10
-2.76281e-10
-1.57356e-10
-3.81531e-10
-1.0331e-09
-1.26319e-09
-1.55739e-09
-1.59514e-09
-1.62654e-09
-1.58274e-09
-1.5906e-09
-1.59251e-09
-1.63861e-09
-1.54271e-09
-1.33088e-09
-1.05924e-09
-7.73728e-10
-6.0117e-10
-4.048e-10
-4.09046e-10
-2.82432e-10
-2.88034e-10
-1.79383e-10
-3.83216e-10
-1.024e-09
-1.25558e-09
-1.55142e-09
-1.59182e-09
-1.62495e-09
-1.58059e-09
-1.58704e-09
-1.58818e-09
-1.63614e-09
-1.54037e-09
-1.33181e-09
-1.0608e-09
-7.7535e-10
-6.0235e-10
-4.04937e-10
-4.11442e-10
-2.8118e-10
-3.0019e-10
-2.03025e-10
-3.86368e-10
-1.01497e-09
-1.2476e-09
-1.5447e-09
-1.58795e-09
-1.62297e-09
-1.5784e-09
-1.58357e-09
-1.58402e-09
-1.63347e-09
-1.53788e-09
-1.33229e-09
-1.06181e-09
-7.76471e-10
-6.03126e-10
-4.04941e-10
-4.13805e-10
-2.80654e-10
-3.12747e-10
-2.28252e-10
-3.91187e-10
-1.00614e-09
-1.2393e-09
-1.53721e-09
-1.58349e-09
-1.62057e-09
-1.57616e-09
-1.58024e-09
-1.58012e-09
-1.63057e-09
-1.53522e-09
-1.33233e-09
-1.06211e-09
-7.76961e-10
-6.03362e-10
-4.04751e-10
-4.15361e-10
-2.81726e-10
-3.2572e-10
-2.55034e-10
-3.97849e-10
-9.97665e-10
-1.23076e-09
-1.52894e-09
-1.57844e-09
-1.61771e-09
-1.57386e-09
-1.57706e-09
-1.5766e-09
-1.62737e-09
-1.53252e-09
-1.33182e-09
-1.06156e-09
-7.76625e-10
-6.02948e-10
-4.04264e-10
-4.16065e-10
-2.84554e-10
-3.39119e-10
-2.83351e-10
-4.06513e-10
-9.89714e-10
-1.22209e-09
-1.51992e-09
-1.57277e-09
-1.61437e-09
-1.57149e-09
-1.57405e-09
-1.57354e-09
-1.62382e-09
-1.53046e-09
-1.33018e-09
-1.06006e-09
-7.75121e-10
-6.01901e-10
-4.03331e-10
-4.16612e-10
-2.88538e-10
-3.52956e-10
-3.13196e-10
-4.17321e-10
-9.82452e-10
-1.2134e-09
-1.51023e-09
-1.56647e-09
-1.61045e-09
-1.56909e-09
-1.57115e-09
-1.57106e-09
-1.61987e-09
-1.52947e-09
-1.32704e-09
-1.05754e-09
-7.72115e-10
-6.00208e-10
-4.01753e-10
-4.17257e-10
-2.93472e-10
-3.67248e-10
-3.44573e-10
-4.30409e-10
-9.76051e-10
-1.20481e-09
-1.49999e-09
-1.55952e-09
-1.60582e-09
-1.56674e-09
-1.56824e-09
-1.56926e-09
-1.61565e-09
-1.52904e-09
-1.32287e-09
-1.05428e-09
-7.67412e-10
-5.97493e-10
-3.9928e-10
-4.17973e-10
-2.99441e-10
-3.81957e-10
-3.77499e-10
-4.45914e-10
-9.70677e-10
-1.19646e-09
-1.48927e-09
-1.55197e-09
-1.60033e-09
-1.56452e-09
-1.56523e-09
-1.56817e-09
-1.61145e-09
-1.52849e-09
-1.31841e-09
-1.05068e-09
-7.60628e-10
-5.93187e-10
-3.957e-10
-4.1859e-10
-3.06302e-10
-3.97326e-10
-4.12054e-10
-4.64026e-10
-9.66448e-10
-1.18852e-09
-1.4782e-09
-1.54386e-09
-1.59395e-09
-1.56231e-09
-1.56214e-09
-1.56768e-09
-1.60751e-09
-1.52743e-09
-1.31534e-09
-1.04599e-09
-7.51385e-10
-5.86815e-10
-3.9088e-10
-4.18836e-10
-3.12082e-10
-4.15349e-10
-4.48319e-10
-4.84884e-10
-9.63539e-10
-1.18114e-09
-1.46689e-09
-1.53532e-09
-1.58681e-09
-1.55982e-09
-1.559e-09
-1.56773e-09
-1.60385e-09
-1.52582e-09
-1.31467e-09
-1.03889e-09
-7.40289e-10
-5.78118e-10
-3.8465e-10
-4.18364e-10
-3.1482e-10
-4.37904e-10
-4.86287e-10
-5.08467e-10
-9.623e-10
-1.17451e-09
-1.4555e-09
-1.52648e-09
-1.57912e-09
-1.55672e-09
-1.55582e-09
-1.56816e-09
-1.60041e-09
-1.52418e-09
-1.31512e-09
-1.02977e-09
-7.28177e-10
-5.67002e-10
-3.7675e-10
-4.16632e-10
-3.15769e-10
-4.63694e-10
-5.26285e-10
-5.34897e-10
-9.6305e-10
-1.16882e-09
-1.44418e-09
-1.51748e-09
-1.571e-09
-1.55288e-09
-1.55258e-09
-1.56885e-09
-1.5971e-09
-1.52304e-09
-1.31516e-09
-1.02209e-09
-7.13222e-10
-5.53431e-10
-3.66838e-10
-4.13004e-10
-3.16781e-10
-4.9024e-10
-5.69844e-10
-5.64777e-10
-9.65988e-10
-1.16432e-09
-1.43313e-09
-1.50844e-09
-1.56245e-09
-1.54834e-09
-1.54944e-09
-1.56921e-09
-1.5938e-09
-1.52251e-09
-1.31439e-09
-1.0184e-09
-6.94068e-10
-5.37275e-10
-3.54425e-10
-4.07024e-10
-3.18147e-10
-5.14792e-10
-6.17173e-10
-5.98439e-10
-9.71372e-10
-1.16124e-09
-1.42259e-09
-1.4993e-09
-1.55364e-09
-1.54318e-09
-1.54646e-09
-1.56866e-09
-1.59044e-09
-1.52254e-09
-1.31313e-09
-1.01703e-09
-6.74341e-10
-5.17137e-10
-3.39587e-10
-3.98547e-10
-3.19154e-10
-5.36725e-10
-6.66625e-10
-6.35571e-10
-9.79501e-10
-1.15995e-09
-1.4128e-09
-1.49005e-09
-1.54477e-09
-1.53748e-09
-1.54324e-09
-1.56731e-09
-1.58705e-09
-1.52293e-09
-1.31245e-09
-1.01568e-09
-6.57779e-10
-4.91278e-10
-3.22779e-10
-3.87276e-10
-3.18728e-10
-5.57786e-10
-7.15798e-10
-6.77529e-10
-9.90763e-10
-1.16078e-09
-1.40398e-09
-1.48106e-09
-1.53583e-09
-1.53128e-09
-1.53951e-09
-1.56486e-09
-1.58348e-09
-1.52355e-09
-1.31334e-09
-1.01377e-09
-6.45022e-10
-4.60114e-10
-3.03555e-10
-3.72117e-10
-3.16282e-10
-5.78308e-10
-7.63862e-10
-7.24305e-10
-1.00588e-09
-1.16393e-09
-1.39644e-09
-1.47268e-09
-1.52689e-09
-1.52474e-09
-1.53502e-09
-1.56099e-09
-1.57931e-09
-1.52417e-09
-1.31593e-09
-1.0123e-09
-6.35799e-10
-4.26556e-10
-2.81191e-10
-3.51768e-10
-3.11542e-10
-5.9753e-10
-8.12373e-10
-7.72873e-10
-1.02573e-09
-1.16985e-09
-1.39057e-09
-1.46526e-09
-1.51814e-09
-1.51801e-09
-1.52978e-09
-1.55549e-09
-1.57399e-09
-1.52444e-09
-1.32012e-09
-1.01231e-09
-6.29243e-10
-3.94627e-10
-2.55205e-10
-3.25441e-10
-3.0385e-10
-6.14027e-10
-8.60864e-10
-8.21814e-10
-1.05072e-09
-1.17922e-09
-1.38695e-09
-1.45905e-09
-1.50996e-09
-1.51118e-09
-1.52363e-09
-1.54826e-09
-1.56718e-09
-1.52374e-09
-1.32561e-09
-1.01497e-09
-6.24752e-10
-3.66604e-10
-2.25168e-10
-2.93082e-10
-2.92367e-10
-6.26185e-10
-9.07644e-10
-8.71427e-10
-1.08022e-09
-1.1922e-09
-1.38617e-09
-1.45434e-09
-1.50275e-09
-1.50443e-09
-1.51623e-09
-1.53927e-09
-1.55886e-09
-1.52142e-09
-1.332e-09
-1.02136e-09
-6.2348e-10
-3.43857e-10
-1.89489e-10
-2.57279e-10
-2.7573e-10
-6.32832e-10
-9.50572e-10
-9.22127e-10
-1.11252e-09
-1.21001e-09
-1.38822e-09
-1.45155e-09
-1.49648e-09
-1.49826e-09
-1.50755e-09
-1.52842e-09
-1.5488e-09
-1.51701e-09
-1.33875e-09
-1.03174e-09
-6.26675e-10
-3.27286e-10
-1.47419e-10
-2.21723e-10
-2.52084e-10
-6.33611e-10
-9.87066e-10
-9.73e-10
-1.1461e-09
-1.23484e-09
-1.39258e-09
-1.45115e-09
-1.49148e-09
-1.49283e-09
-1.4979e-09
-1.51599e-09
-1.53634e-09
-1.51016e-09
-1.3452e-09
-1.04577e-09
-6.35434e-10
-3.17335e-10
-1.04655e-10
-1.84827e-10
-2.20307e-10
-6.28072e-10
-1.01455e-09
-1.02182e-09
-1.17996e-09
-1.26653e-09
-1.39942e-09
-1.45357e-09
-1.48865e-09
-1.48799e-09
-1.48767e-09
-1.50236e-09
-1.52108e-09
-1.50041e-09
-1.35055e-09
-1.06275e-09
-6.51232e-10
-3.15111e-10
-6.86692e-11
-1.42665e-10
-1.81237e-10
-6.149e-10
-1.03159e-09
-1.06601e-09
-1.21372e-09
-1.30192e-09
-1.41045e-09
-1.45962e-09
-1.48849e-09
-1.4839e-09
-1.47731e-09
-1.48783e-09
-1.50305e-09
-1.48736e-09
-1.35387e-09
-1.08185e-09
-6.74933e-10
-3.21387e-10
-4.23815e-11
-9.47963e-11
-1.3864e-10
-5.91704e-10
-1.03722e-09
-1.10221e-09
-1.24671e-09
-1.33835e-09
-1.42734e-09
-1.46974e-09
-1.49119e-09
-1.48102e-09
-1.46733e-09
-1.47268e-09
-1.4826e-09
-1.47108e-09
-1.35388e-09
-1.10199e-09
-7.0615e-10
-3.37534e-10
-2.71207e-11
-4.1735e-11
-9.79808e-11
-5.56993e-10
-1.02973e-09
-1.12693e-09
-1.2762e-09
-1.37452e-09
-1.45082e-09
-1.48299e-09
-1.497e-09
-1.48007e-09
-1.45833e-09
-1.4573e-09
-1.46026e-09
-1.45166e-09
-1.34956e-09
-1.12185e-09
-7.43808e-10
-3.64639e-10
-2.51467e-11
7.62086e-12
-5.6194e-11
-5.11746e-10
-1.00661e-09
-1.13787e-09
-1.29831e-09
-1.40907e-09
-1.48062e-09
-1.49836e-09
-1.50599e-09
-1.48182e-09
-1.45103e-09
-1.4421e-09
-1.43678e-09
-1.42884e-09
-1.34063e-09
-1.13999e-09
-7.863e-10
-4.03813e-10
-3.79764e-11
4.27789e-11
-9.47317e-12
-4.58402e-10
-9.66468e-10
-1.13313e-09
-1.30931e-09
-1.43959e-09
-1.51326e-09
-1.51831e-09
-1.51763e-09
-1.4866e-09
-1.44628e-09
-1.42763e-09
-1.413e-09
-1.40274e-09
-1.32697e-09
-1.15499e-09
-8.31882e-10
-4.55072e-10
-6.71119e-11
6.12163e-11
4.28005e-11
-4.0527e-10
-9.10649e-10
-1.10962e-09
-1.30635e-09
-1.46271e-09
-1.54458e-09
-1.54461e-09
-1.53207e-09
-1.49403e-09
-1.44479e-09
-1.4147e-09
-1.38955e-09
-1.37385e-09
-1.30871e-09
-1.1656e-09
-8.78491e-10
-5.16798e-10
-1.1384e-10
6.00432e-11
9.17505e-11
-3.52089e-10
-8.4205e-10
-1.06538e-09
-1.2871e-09
-1.47372e-09
-1.57206e-09
-1.57468e-09
-1.55072e-09
-1.50384e-09
-1.44675e-09
-1.40427e-09
-1.36697e-09
-1.34296e-09
-1.2865e-09
-1.1709e-09
-9.23888e-10
-5.86576e-10
-1.78969e-10
3.74925e-11
1.23107e-10
-2.94558e-10
-7.69185e-10
-1.00112e-09
-1.24829e-09
-1.46823e-09
-1.59224e-09
-1.60468e-09
-1.57388e-09
-1.517e-09
-1.45194e-09
-1.39703e-09
-1.34598e-09
-1.31127e-09
-1.26117e-09
-1.17034e-09
-9.65859e-10
-6.61642e-10
-2.61703e-10
-7.85714e-12
1.33363e-10
-2.35289e-10
-6.92553e-10
-9.20733e-10
-1.18675e-09
-1.44325e-09
-1.60058e-09
-1.63088e-09
-1.59971e-09
-1.53433e-09
-1.46046e-09
-1.39326e-09
-1.32744e-09
-1.28105e-09
-1.23296e-09
-1.16382e-09
-1.00245e-09
-7.38794e-10
-3.59328e-10
-7.64934e-11
1.17676e-10
-1.84198e-10
-6.0885e-10
-8.30472e-10
-1.10226e-09
-1.39626e-09
-1.59178e-09
-1.64921e-09
-1.62528e-09
-1.55532e-09
-1.47264e-09
-1.39306e-09
-1.31247e-09
-1.25308e-09
-1.20349e-09
-1.15194e-09
-1.03219e-09
-8.14634e-10
-4.67887e-10
-1.67905e-10
7.29615e-11
-1.55655e-10
-5.29768e-10
-7.30428e-10
-1.00088e-09
-1.3246e-09
-1.56139e-09
-1.65499e-09
-1.64693e-09
-1.57808e-09
-1.48817e-09
-1.3966e-09
-1.30204e-09
-1.22752e-09
-1.1753e-09
-1.13587e-09
-1.05426e-09
-8.85882e-10
-5.82733e-10
-2.80609e-10
-1.71199e-12
-1.54285e-10
-4.688e-10
-6.21151e-10
-8.88797e-10
-1.22728e-09
-1.50651e-09
-1.64284e-09
-1.66023e-09
-1.59965e-09
-1.50585e-09
-1.40365e-09
-1.29632e-09
-1.2066e-09
-1.1497e-09
-1.11715e-09
-1.06863e-09
-9.49687e-10
-6.99106e-10
-4.11028e-10
-1.05059e-10
-1.84665e-10
-4.33353e-10
-5.18906e-10
-7.64935e-10
-1.1066e-09
-1.42478e-09
-1.60775e-09
-1.66009e-09
-1.6162e-09
-1.52368e-09
-1.41343e-09
-1.29508e-09
-1.19225e-09
-1.12807e-09
-1.09768e-09
-1.07607e-09
-1.00389e-09
-8.12183e-10
-5.53619e-10
-2.34575e-10
-2.49105e-10
-4.30064e-10
-4.38508e-10
-6.33594e-10
-9.67514e-10
-1.31545e-09
-1.54597e-09
-1.64094e-09
-1.62307e-09
-1.53884e-09
-1.42472e-09
-1.29817e-09
-1.18497e-09
-1.11181e-09
-1.07942e-09
-1.07793e-09
-1.04737e-09
-9.1751e-10
-7.02143e-10
-3.86325e-10
-3.47335e-10
-4.64389e-10
-3.8564e-10
-5.05302e-10
-8.18723e-10
-1.18142e-09
-1.45507e-09
-1.59767e-09
-1.61494e-09
-1.54772e-09
-1.43571e-09
-1.30518e-09
-1.18473e-09
-1.10131e-09
-1.06434e-09
-1.07542e-09
-1.0805e-09
-1.01152e-09
-8.50389e-10
-5.55512e-10
-4.76181e-10
-5.37306e-10
-3.66244e-10
-3.93781e-10
-6.65158e-10
-1.029e-09
-1.33627e-09
-1.5267e-09
-1.58637e-09
-1.54568e-09
-1.44382e-09
-1.31478e-09
-1.1907e-09
-1.09652e-09
-1.05311e-09
-1.07095e-09
-1.10493e-09
-1.09175e-09
-9.925e-10
-7.36609e-10
-6.29603e-10
-6.46283e-10
-3.85554e-10
-3.14198e-10
-5.15781e-10
-8.62098e-10
-1.19396e-09
-1.42655e-09
-1.53284e-09
-1.52758e-09
-1.44526e-09
-1.32473e-09
-1.20039e-09
-1.09781e-09
-1.0459e-09
-1.06626e-09
-1.12383e-09
-1.15705e-09
-1.12264e-09
-9.22129e-10
-8.01299e-10
-7.85527e-10
-4.46506e-10
-2.7514e-10
-3.87911e-10
-6.89143e-10
-1.03037e-09
-1.29811e-09
-1.45131e-09
-1.48857e-09
-1.43528e-09
-1.33149e-09
-1.21138e-09
-1.10454e-09
-1.04402e-09
-1.06228e-09
-1.13848e-09
-1.20819e-09
-1.2354e-09
-1.1034e-09
-9.85599e-10
-9.48828e-10
-5.47495e-10
-2.81393e-10
-2.93575e-10
-5.26858e-10
-8.5121e-10
-1.14416e-09
-1.34146e-09
-1.42413e-09
-1.40851e-09
-1.33061e-09
-1.22117e-09
-1.11478e-09
-1.04839e-09
-1.0616e-09
-1.1477e-09
-1.24839e-09
-1.32687e-09
-1.2718e-09
-1.17352e-09
-1.12672e-09
-6.85019e-10
-3.34359e-10
-2.40661e-10
-3.88129e-10
-6.70011e-10
-9.70979e-10
-1.20564e-09
-1.33374e-09
-1.36042e-09
-1.31511e-09
-1.22648e-09
-1.12573e-09
-1.05867e-09
-1.06512e-09
-1.15304e-09
-1.28106e-09
-1.39651e-09
-1.41974e-09
-1.3547e-09
-1.30966e-09
-8.51998e-10
-4.32224e-10
-2.34792e-10
-2.84581e-10
-5.00945e-10
-7.87595e-10
-1.04775e-09
-1.21899e-09
-1.29025e-09
-1.27885e-09
-1.22231e-09
-1.13452e-09
-1.07254e-09
-1.07192e-09
-1.15762e-09
-1.30571e-09
-1.44807e-09
-1.54198e-09
-1.51956e-09
-1.48803e-09
-1.03478e-09
-5.70953e-10
-2.77037e-10
-2.26356e-10
-3.5895e-10
-6.06467e-10
-8.73239e-10
-1.0812e-09
-1.19673e-09
-1.22313e-09
-1.20097e-09
-1.13916e-09
-1.08567e-09
-1.08157e-09
-1.16349e-09
-1.31929e-09
-1.48626e-09
-1.63633e-09
-1.66261e-09
-1.65033e-09
-1.22003e-09
-7.40896e-10
-3.67847e-10
-2.14037e-10
-2.60214e-10
-4.42091e-10
-6.93306e-10
-9.24491e-10
-1.07867e-09
-1.1495e-09
-1.15883e-09
-1.13576e-09
-1.09347e-09
-1.09287e-09
-1.17063e-09
-1.32476e-09
-1.5115e-09
-1.70226e-09
-1.78118e-09
-1.78627e-09
-1.40122e-09
-9.28158e-10
-5.03885e-10
-2.48732e-10
-2.0745e-10
-3.12065e-10
-5.22216e-10
-7.56685e-10
-9.42146e-10
-1.05407e-09
-1.09982e-09
-1.11584e-09
-1.09368e-09
-1.10293e-09
-1.17586e-09
-1.32643e-09
-1.52645e-09
-1.73984e-09
-1.87005e-09
-1.88997e-09
-1.57538e-09
-1.11822e-09
-6.71627e-10
-3.3536e-10
-1.97621e-10
-2.27712e-10
-3.73355e-10
-5.9133e-10
-7.93937e-10
-9.3867e-10
-1.02504e-09
-1.0708e-09
-1.08606e-09
-1.1069e-09
-1.1771e-09
-1.32371e-09
-1.53359e-09
-1.75373e-09
-1.92406e-09
-1.96364e-09
-1.72779e-09
-1.29903e-09
-8.5874e-10
-4.68555e-10
-2.38221e-10
-1.87055e-10
-2.6362e-10
-4.3884e-10
-6.41248e-10
-8.1117e-10
-9.31303e-10
-1.00738e-09
-1.06424e-09
-1.09928e-09
-1.17366e-09
-1.31552e-09
-1.52697e-09
-1.75105e-09
-1.94542e-09
-2.00658e-09
-1.84222e-09
-1.46463e-09
-1.04943e-09
-6.37029e-10
-3.30992e-10
-1.92875e-10
-2.01351e-10
-3.11563e-10
-4.98087e-10
-6.78507e-10
-8.23314e-10
-9.32992e-10
-1.01805e-09
-1.08074e-09
-1.16365e-09
-1.2991e-09
-1.50227e-09
-1.73696e-09
-1.94193e-09
-2.01637e-09
-1.91305e-09
-1.61246e-09
-1.22689e-09
-8.21565e-10
-4.70044e-10
-2.51474e-10
-1.81332e-10
-2.29476e-10
-3.75561e-10
-5.48956e-10
-7.10437e-10
-8.45285e-10
-9.53312e-10
-1.0498e-09
-1.1421e-09
-1.27291e-09
-1.46596e-09
-1.70938e-09
-1.91658e-09
-1.99657e-09
-1.94331e-09
-1.72789e-09
-1.38401e-09
-1.00673e-09
-6.37148e-10
-3.56252e-10
-2.12715e-10
-1.96596e-10
-2.82222e-10
-4.35424e-10
-5.9947e-10
-7.49073e-10
-8.81108e-10
-9.99095e-10
-1.10772e-09
-1.2391e-09
-1.42477e-09
-1.66239e-09
-1.87142e-09
-1.95355e-09
-1.93948e-09
-1.79553e-09
-1.51887e-09
-1.17641e-09
-8.14326e-10
-5.0053e-10
-2.93295e-10
-2.08333e-10
-2.33333e-10
-3.47298e-10
-4.99598e-10
-6.55289e-10
-8.01435e-10
-9.34127e-10
-1.06168e-09
-1.19853e-09
-1.37448e-09
-1.59811e-09
-1.80842e-09
-1.89403e-09
-1.90674e-09
-1.81449e-09
-1.61712e-09
-1.32011e-09
-9.88684e-10
-6.66211e-10
-4.14127e-10
-2.69733e-10
-2.32534e-10
-2.93831e-10
-4.20511e-10
-5.70071e-10
-7.20924e-10
-8.65691e-10
-1.00367e-09
-1.14581e-09
-1.31565e-09
-1.52633e-09
-1.72618e-09
-1.81192e-09
-1.84888e-09
-1.79297e-09
-1.66964e-09
-1.43901e-09
-1.14264e-09
-8.35859e-10
-5.64039e-10
-3.72675e-10
-2.81541e-10
-2.85176e-10
-3.68579e-10
-5.02058e-10
-6.49574e-10
-7.96189e-10
-9.39764e-10
-1.08513e-09
-1.24944e-09
-1.44703e-09
-1.63111e-09
-1.70274e-09
-1.76694e-09
-1.74175e-09
-1.682e-09
-1.52015e-09
-1.26751e-09
-9.94116e-10
-7.25906e-10
-5.07762e-10
-3.71345e-10
-3.24162e-10
-3.57871e-10
-4.57724e-10
-5.9249e-10
-7.34583e-10
-8.76791e-10
-1.02021e-09
-1.1786e-09
-1.36373e-09
-1.52767e-09
-1.57646e-09
-1.66295e-09
-1.66749e-09
-1.6519e-09
-1.5561e-09
-1.36299e-09
-1.12458e-09
-8.83299e-10
-6.59071e-10
-4.91463e-10
-4.03287e-10
-3.93476e-10
-4.49657e-10
-5.57269e-10
-6.87777e-10
-8.22392e-10
-9.58387e-10
-1.10739e-09
-1.27812e-09
-1.42016e-09
-1.44486e-09
-1.5414e-09
-1.56937e-09
-1.58605e-09
-1.54997e-09
-1.41948e-09
-1.22231e-09
-1.01508e-09
-8.10268e-10
-6.31495e-10
-5.12092e-10
-4.64998e-10
-4.83276e-10
-5.57086e-10
-6.64254e-10
-7.84934e-10
-9.08352e-10
-1.04364e-09
-1.19328e-09
-1.31227e-09
-1.31482e-09
-1.40927e-09
-1.45238e-09
-1.49231e-09
-1.49929e-09
-1.42905e-09
-1.28882e-09
-1.11325e-09
-9.42019e-10
-7.75289e-10
-6.41846e-10
-5.65869e-10
-5.51282e-10
-5.92634e-10
-6.74343e-10
-7.71362e-10
-8.7612e-10
-9.93497e-10
-1.11868e-09
-1.21258e-09
-1.19459e-09
-1.27518e-09
-1.32479e-09
-1.37707e-09
-1.41119e-09
-1.3936e-09
-1.31007e-09
-1.1788e-09
-1.04218e-09
-9.06059e-10
-7.7778e-10
-6.86634e-10
-6.49068e-10
-6.62374e-10
-7.15898e-10
-7.87528e-10
-8.68719e-10
-9.63265e-10
-1.06227e-09
-1.12789e-09
-1.09163e-09
-1.15068e-09
-1.19546e-09
-1.24806e-09
-1.29681e-09
-1.31661e-09
-1.28386e-09
-1.20565e-09
-1.10282e-09
-1.00651e-09
-9.05158e-10
-8.16466e-10
-7.6533e-10
-7.59338e-10
-7.87567e-10
-8.35273e-10
-8.92124e-10
-9.60147e-10
-1.03109e-09
-1.06467e-09
-1.01317e-09
-1.0465e-09
-1.07279e-09
-1.11519e-09
-1.16615e-09
-1.20577e-09
-1.21344e-09
-1.18427e-09
-1.12486e-09
-1.0693e-09
-1.00687e-09
-9.3816e-10
-8.8897e-10
-8.73671e-10
-8.84963e-10
-9.12288e-10
-9.47536e-10
-9.8926e-10
-1.03212e-09
-1.03022e-09
-9.67554e-10
-9.6879e-10
-9.6803e-10
-9.90048e-10
-1.02952e-09
-1.07306e-09
-1.1063e-09
-1.11605e-09
-1.10194e-09
-1.08831e-09
-1.0718e-09
-1.03718e-09
-1.00648e-09
-9.94162e-10
-1.00011e-09
-1.01512e-09
-1.03361e-09
-1.05198e-09
-1.06681e-09
-1.02897e-09
-9.59581e-10
-9.28255e-10
-8.9296e-10
-8.83369e-10
-8.98512e-10
-9.3062e-10
-9.71883e-10
-1.00627e-09
-1.03005e-09
-1.06025e-09
-1.09392e-09
-1.10186e-09
-1.10295e-09
-1.10947e-09
-1.12285e-09
-1.13668e-09
-1.14622e-09
-1.14604e-09
-1.13332e-09
-1.06106e-09
-1.00309e-09
-9.20179e-10
-8.47416e-10
-8.02476e-10
-7.82602e-10
-7.90141e-10
-8.20358e-10
-8.62209e-10
-9.14913e-10
-9.89397e-10
-1.06904e-09
-1.1227e-09
-1.16647e-09
-1.20671e-09
-1.24143e-09
-1.26697e-09
-1.27779e-09
-1.26603e-09
-1.23124e-09
-1.13523e-09
-1.09063e-09
-9.46266e-10
-8.40409e-10
-7.54949e-10
-6.89821e-10
-6.59935e-10
-6.6252e-10
-6.96195e-10
-7.70754e-10
-8.82693e-10
-9.94582e-10
-1.09427e-09
-1.18815e-09
-1.2736e-09
-1.34342e-09
-1.3944e-09
-1.41857e-09
-1.40504e-09
-1.35879e-09
-1.25177e-09
-1.19755e-09
-1.02123e-09
-8.79576e-10
-7.47171e-10
-6.30731e-10
-5.50366e-10
-5.12534e-10
-5.28174e-10
-6.10675e-10
-7.39068e-10
-8.73579e-10
-1.0171e-09
-1.16317e-09
-1.29995e-09
-1.41705e-09
-1.50708e-09
-1.55703e-09
-1.55294e-09
-1.51578e-09
-1.39635e-09
-1.33616e-09
-1.14061e-09
-9.62856e-10
-7.81505e-10
-6.11016e-10
-4.71989e-10
-3.83114e-10
-3.71933e-10
-4.43632e-10
-5.6549e-10
-7.14244e-10
-8.93914e-10
-1.08904e-09
-1.27956e-09
-1.45266e-09
-1.5942e-09
-1.68354e-09
-1.70354e-09
-1.68172e-09
-1.55676e-09
-1.5072e-09
-1.29723e-09
-1.08781e-09
-8.61494e-10
-6.35332e-10
-4.33169e-10
-2.8307e-10
-2.33513e-10
-2.78992e-10
-3.77926e-10
-5.26864e-10
-7.30027e-10
-9.65763e-10
-1.20995e-09
-1.4434e-09
-1.64605e-09
-1.78841e-09
-1.84428e-09
-1.84175e-09
-1.72565e-09
-1.69676e-09
-1.48102e-09
-1.24853e-09
-9.85066e-10
-7.06319e-10
-4.40296e-10
-2.20658e-10
-1.17646e-10
-1.2538e-10
-1.91404e-10
-3.24294e-10
-5.3498e-10
-7.99138e-10
-1.09148e-09
-1.3845e-09
-1.65359e-09
-1.86174e-09
-1.96436e-09
-1.99116e-09
-1.89998e-09
-1.89056e-09
-1.68115e-09
-1.43713e-09
-1.14663e-09
-8.22536e-10
-4.9665e-10
-2.03766e-10
-2.81067e-11
9.64099e-12
-1.99627e-11
-1.20635e-10
-3.21201e-10
-5.99171e-10
-9.29e-10
-1.27531e-09
-1.61051e-09
-1.89359e-09
-2.05849e-09
-2.12555e-09
-2.06843e-09
-2.07645e-09
-1.88722e-09
-1.64423e-09
-1.3381e-09
-9.78683e-10
-6.013e-10
-2.39137e-10
2.88589e-11
1.1937e-10
1.23868e-10
6.93197e-11
-1.03037e-10
-3.79454e-10
-7.3008e-10
-1.11926e-09
-1.51515e-09
-1.87524e-09
-2.1204e-09
-2.23631e-09
-2.21649e-09
-2.24251e-09
-2.08716e-09
-1.85844e-09
-1.54891e-09
-1.16659e-09
-7.49458e-10
-3.27579e-10
3.85466e-11
1.9492e-10
2.35354e-10
2.33693e-10
1.06273e-10
-1.52345e-10
-5.05124e-10
-9.24734e-10
-1.37116e-09
-1.80198e-09
-2.13912e-09
-2.31674e-09
-2.33647e-09
-2.37555e-09
-2.26541e-09
-2.0644e-09
-1.76391e-09
-1.37601e-09
-9.32476e-10
-4.63376e-10
-1.43818e-11
2.20138e-10
3.10512e-10
3.66246e-10
2.95837e-10
7.16272e-11
-2.69204e-10
-7.04717e-10
-1.18759e-09
-1.67712e-09
-2.10324e-09
-2.3627e-09
-2.42429e-09
-2.45668e-09
-2.40086e-09
-2.2455e-09
-1.96966e-09
-1.59456e-09
-1.13842e-09
-6.36252e-10
-1.25979e-10
1.98884e-10
3.43894e-10
4.54619e-10
4.48813e-10
2.75559e-10
-3.85775e-11
-4.71927e-10
-9.72545e-10
-1.50149e-09
-1.99901e-09
-2.39162e-09
-2.49917e-09
-2.4946e-09
-2.49328e-09
-2.39833e-09
-2.16349e-09
-1.81417e-09
-1.3632e-09
-8.51428e-10
-3.07076e-10
1.75827e-10
3.76281e-10
4.71761e-10
5.35147e-10
4.3284e-10
1.63554e-10
-2.4135e-10
-7.39669e-10
-1.28969e-09
-1.83749e-09
-2.35478e-09
-2.52776e-09
-2.49242e-09
-2.54228e-09
-2.51395e-09
-2.33214e-09
-2.01898e-09
-1.58885e-09
-1.08363e-09
-5.26629e-10
5.06686e-11
3.32818e-10
4.4884e-10
5.70277e-10
5.45739e-10
3.34956e-10
-2.19891e-11
-5.02065e-10
-1.05473e-09
-1.63244e-09
-2.21837e-09
-2.47611e-09
-2.43558e-09
-2.53766e-09
-2.57344e-09
-2.45472e-09
-2.19043e-09
-1.80136e-09
-1.32093e-09
-7.7121e-10
-1.79989e-10
1.92095e-10
3.81948e-10
5.57014e-10
6.0777e-10
4.66856e-10
1.66397e-10
-2.77944e-10
-8.11743e-10
-1.39492e-09
-2.00361e-09
-2.34066e-09
-2.29848e-09
-2.45087e-09
-2.55278e-09
-2.50695e-09
-2.30781e-09
-1.98313e-09
-1.54462e-09
-1.02125e-09
-4.42484e-10
3.56619e-12
2.38169e-10
4.62013e-10
5.86226e-10
5.28502e-10
2.98274e-10
-8.91869e-11
-5.81474e-10
-1.1462e-09
-1.75372e-09
-2.15986e-09
-2.20889e-09
-2.27303e-09
-2.43469e-09
-2.48262e-09
-2.37198e-09
-2.13177e-09
-1.76285e-09
-1.30295e-09
-7.67228e-10
-1.46531e-10
1.36965e-10
2.71629e-10
4.59397e-10
5.01842e-10
3.63553e-10
7.09897e-11
-3.47776e-10
-8.55297e-10
-1.42672e-09
-2.01529e-09
-1.96944e-09
-2.12226e-09
-2.31326e-09
-2.43292e-09
-2.40773e-09
-2.2519e-09
-1.9672e-09
-1.58682e-09
-1.12307e-09
-5.42157e-10
-1.34051e-10
9.31934e-11
3.14695e-10
4.36956e-10
3.93986e-10
2.08023e-10
-1.18517e-10
-5.42273e-10
-1.03709e-09
-1.62736e-09
-1.53856e-09
-1.8219e-09
-2.08529e-09
-2.26702e-09
-2.32936e-09
-2.27166e-09
-2.08952e-09
-1.80466e-09
-1.42971e-09
-9.76561e-10
-5.48733e-10
-2.47902e-10
5.33298e-11
2.48802e-10
3.04469e-10
2.28295e-10
1.08603e-11
-3.12247e-10
-7.0137e-10
-1.15753e-09
-1.05274e-09
-1.36595e-09
-1.70517e-09
-1.96147e-09
-2.11882e-09
-2.17206e-09
-2.11526e-09
-1.94265e-09
-1.67205e-09
-1.36833e-09
-1.01969e-09
-7.07227e-10
-3.46647e-10
-7.3274e-11
8.4756e-11
1.27276e-10
3.64992e-11
-1.67239e-10
-4.51859e-10
-7.41908e-10
-5.94134e-10
-9.20763e-10
-1.30053e-09
-1.61595e-09
-1.86701e-09
-2.03875e-09
-2.11947e-09
-2.08423e-09
-1.94862e-09
-1.73609e-09
-1.47177e-09
-1.13767e-09
-7.63862e-10
-4.40352e-10
-1.85931e-10
-2.07575e-11
3.71717e-11
-1.94441e-11
-1.58468e-10
-3.38875e-10
-6.48158e-11
-4.36414e-10
-9.09461e-10
-1.26608e-09
-1.58644e-09
-1.86647e-09
-2.07467e-09
-2.17919e-09
-2.18448e-09
-2.0964e-09
-1.97622e-09
-1.63698e-09
-1.18193e-09
-8.19613e-10
-4.9424e-10
-2.12352e-10
-4.29029e-12
9.25925e-11
1.08637e-10
6.12216e-11
3.34587e-10
-1.75984e-11
-5.28572e-10
-9.08782e-10
-1.27303e-09
-1.63846e-09
-1.95867e-09
-2.19359e-09
-2.33526e-09
-2.38539e-09
-2.36776e-09
-2.09312e-09
-1.61392e-09
-1.20721e-09
-8.32377e-10
-4.51015e-10
-1.09252e-10
1.41694e-10
3.19149e-10
3.88099e-10
5.88835e-10
2.86446e-10
-1.8099e-10
-5.65957e-10
-9.51351e-10
-1.37354e-09
-1.7799e-09
-2.1229e-09
-2.38222e-09
-2.54916e-09
-2.62573e-09
-2.41158e-09
-1.98021e-09
-1.58372e-09
-1.17718e-09
-7.26338e-10
-2.84559e-10
9.29519e-11
4.078e-10
5.88955e-10
6.60207e-10
4.26549e-10
3.98658e-11
-3.05072e-10
-6.81645e-10
-1.11775e-09
-1.56142e-09
-1.9672e-09
-2.30194e-09
-2.54975e-09
-2.69556e-09
-2.5635e-09
-2.21673e-09
-1.85985e-09
-1.45927e-09
-9.90084e-10
-5.02465e-10
-4.93254e-11
3.51905e-10
6.09463e-10
5.36974e-10
3.83154e-10
9.66028e-11
-1.86215e-10
-5.18853e-10
-9.19446e-10
-1.34463e-09
-1.7529e-09
-2.10595e-09
-2.38361e-09
-2.56527e-09
-2.54217e-09
-2.2978e-09
-1.97431e-09
-1.61728e-09
-1.18595e-09
-7.16866e-10
-2.56578e-10
1.6496e-10
4.50933e-10
2.44375e-10
1.77696e-10