/*--------------------------------*- C++ -*----------------------------------*\
  =========                 |
  \\      /  F ield         | OpenFOAM: The Open Source CFD Toolbox
   \\    /   O peration     | Website:  https://openfoam.org
    \\  /    A nd           | Version:  6
     \\/     M anipulation  |
\*---------------------------------------------------------------------------*/
FoamFile
{
    version     2.0;
    format      ascii;
    class       surfaceScalarField;
    location    "19.44";
    object      phi;
}
// * * * * * * * * * * * * * * * * * * * * * * * * * * * * * * * * * * * * * //

dimensions      [0 3 -1 0 0 0 0];

internalField   nonuniform List<scalar> 
6298
(
1.01608e-09
3.3447e-17
1.01608e-09
6.4395e-19
1.01608e-09
-6.39968e-18
1.01608e-09
-3.81193e-18
1.01608e-09
-3.67286e-19
1.01608e-09
2.62226e-18
1.01608e-09
3.60809e-18
1.01608e-09
1.9907e-18
1.01608e-09
-2.31504e-18
1.01608e-09
-8.45066e-18
1.01608e-09
-1.47343e-17
1.01608e-09
-1.95046e-17
1.01608e-09
-1.99117e-17
1.01608e-09
-1.45623e-17
1.01608e-09
-5.74844e-18
1.01608e-09
2.27968e-18
1.01608e-09
7.0271e-18
1.01608e-09
9.38928e-18
1.01608e-09
5.57129e-18
2.93357e-17
2.54956e-09
9.59208e-17
2.54956e-09
5.72258e-18
2.54956e-09
-1.65413e-17
2.54956e-09
-1.02899e-17
2.54956e-09
-1.6862e-18
2.54956e-09
6.58059e-18
2.54956e-09
9.82581e-18
2.54956e-09
6.48619e-18
2.54956e-09
-4.48974e-18
2.54956e-09
-2.12051e-17
2.54956e-09
-3.94898e-17
2.54956e-09
-5.4722e-17
2.54956e-09
-5.81378e-17
2.54956e-09
-4.45879e-17
2.54956e-09
-1.98545e-17
2.54956e-09
3.50003e-18
2.54956e-09
1.81504e-17
2.54956e-09
2.62122e-17
2.54956e-09
1.65567e-17
8.21582e-17
3.82211e-09
1.7473e-16
3.82211e-09
1.59293e-17
3.82211e-09
-2.73546e-17
3.82211e-09
-1.77241e-17
3.82211e-09
-3.84842e-18
3.82211e-09
1.0744e-17
3.82211e-09
1.72745e-17
3.82211e-09
1.30141e-17
3.82211e-09
-5.08723e-18
3.82211e-09
-3.44384e-17
3.82211e-09
-6.82959e-17
3.82211e-09
-9.83856e-17
3.82211e-09
-1.07812e-16
3.82211e-09
-8.55321e-17
3.82211e-09
-4.10376e-17
3.82211e-09
2.21398e-18
3.82211e-09
3.04824e-17
3.82211e-09
4.70089e-17
3.82211e-09
3.12698e-17
1.46959e-16
4.92791e-09
2.63667e-16
4.92791e-09
3.13663e-17
4.92791e-09
-3.73605e-17
4.92791e-09
-2.52777e-17
4.92791e-09
-6.70727e-18
4.92791e-09
1.4664e-17
4.92791e-09
2.53848e-17
4.92791e-09
2.13671e-17
4.92791e-09
-3.49393e-18
4.92791e-09
-4.65251e-17
4.92791e-09
-9.85869e-17
4.92791e-09
-1.47315e-16
4.92791e-09
-1.65852e-16
4.92791e-09
-1.35264e-16
4.92791e-09
-6.85876e-17
4.92791e-09
-2.04537e-18
4.92791e-09
4.28808e-17
4.92791e-09
7.03123e-17
4.92791e-09
4.90336e-17
2.18448e-16
5.91468e-09
3.59125e-16
5.91468e-09
5.19248e-17
5.91468e-09
-4.5733e-17
5.91468e-09
-3.24481e-17
5.91468e-09
-1.01261e-17
5.91468e-09
1.81411e-17
5.91468e-09
3.38699e-17
5.91468e-09
3.14178e-17
5.91468e-09
5.78144e-19
5.91468e-09
-5.66548e-17
5.91468e-09
-1.29041e-16
5.91468e-09
-1.99803e-16
5.91468e-09
-2.30535e-16
5.91468e-09
-1.92535e-16
5.91468e-09
-1.02021e-16
5.91468e-09
-9.42916e-18
5.91468e-09
5.48084e-17
5.91468e-09
9.53513e-17
5.91468e-09
6.95052e-17
2.93714e-16
6.81064e-09
4.58767e-16
6.81064e-09
7.74024e-17
6.81064e-09
-5.19656e-17
6.81064e-09
-3.88983e-17
6.81064e-09
-1.39779e-17
6.81064e-09
2.10879e-17
6.81064e-09
4.25656e-17
6.81064e-09
4.30618e-17
6.81064e-09
7.2539e-18
6.81064e-09
-6.43966e-17
6.81064e-09
-1.58898e-16
6.81064e-09
-2.54802e-16
6.81064e-09
-3.00751e-16
6.81064e-09
-2.56501e-16
6.81064e-09
-1.40969e-16
6.81064e-09
-1.99673e-17
6.81064e-09
6.59773e-17
6.81064e-09
1.21655e-16
6.81064e-09
9.24746e-17
3.7099e-16
7.63415e-09
5.6097e-16
7.63415e-09
1.07551e-16
7.63415e-09
-5.57326e-17
7.63415e-09
-4.43872e-17
7.63415e-09
-1.81447e-17
7.63415e-09
2.34753e-17
7.63415e-09
5.13707e-17
7.63415e-09
5.62007e-17
7.63415e-09
1.65672e-17
7.63415e-09
-6.9522e-17
7.63415e-09
-1.87697e-16
7.63415e-09
-3.11605e-16
7.63415e-09
-3.757e-16
7.63416e-09
-3.26523e-16
7.63416e-09
-1.85125e-16
7.63416e-09
-3.36359e-17
7.63416e-09
7.62201e-17
7.63416e-09
1.48904e-16
7.63416e-09
1.17793e-16
4.49129e-16
8.398e-09
6.6455e-16
8.398e-09
1.42103e-16
8.398e-09
-5.68206e-17
8.398e-09
-4.87357e-17
8.398e-09
-2.25165e-17
8.398e-09
2.53072e-17
8.398e-09
6.02191e-17
8.398e-09
7.07389e-17
8.398e-09
2.84954e-17
8.398e-09
-7.19222e-17
8.398e-09
-2.15142e-16
8.398e-09
-3.69699e-16
8.398e-09
-4.54767e-16
8.398e-09
-4.02088e-16
8.398e-09
-2.34225e-16
8.398e-09
-5.03868e-17
8.398e-09
8.54311e-17
8.398e-09
1.76866e-16
8.398e-09
1.45339e-16
5.27363e-16
9.11153e-09
7.68612e-16
9.11153e-09
1.80785e-16
9.11153e-09
-5.50905e-17
9.11153e-09
-5.18071e-17
9.11153e-09
-2.69905e-17
9.11153e-09
2.66079e-17
9.11153e-09
6.90661e-17
9.11153e-09
8.65815e-17
9.11153e-09
4.29794e-17
9.11153e-09
-7.15635e-17
9.11153e-09
-2.41045e-16
9.11153e-09
-4.28691e-16
9.11153e-09
-5.37447e-16
9.11153e-09
-4.82757e-16
9.11153e-09
-2.8803e-16
9.11153e-09
-7.01612e-17
9.11153e-09
9.35386e-17
9.11153e-09
2.05357e-16
9.11153e-09
1.75009e-16
6.05157e-16
9.78184e-09
8.72469e-16
9.78184e-09
2.23324e-16
9.78184e-09
-5.04568e-17
9.78184e-09
-5.34967e-17
9.78184e-09
-3.14705e-17
9.78184e-09
2.74147e-17
9.78184e-09
7.78803e-17
9.78184e-09
1.03634e-16
9.78184e-09
5.99361e-17
9.78184e-09
-6.84614e-17
9.78184e-09
-2.65283e-16
9.78184e-09
-4.88264e-16
9.78184e-09
-6.2331e-16
9.78184e-09
-5.68145e-16
9.78184e-09
-3.46321e-16
9.78184e-09
-9.28968e-17
9.78184e-09
1.00489e-16
9.78184e-09
2.34227e-16
9.78184e-09
2.06704e-16
6.82136e-16
1.04145e-08
9.7558e-16
1.04145e-08
2.69458e-16
1.04145e-08
-4.28747e-17
1.04145e-08
-5.37233e-17
1.04145e-08
-3.58669e-17
1.04145e-08
2.77733e-17
1.04145e-08
8.66405e-17
1.04145e-08
1.21805e-16
1.04145e-08
7.92675e-17
1.04145e-08
-6.26638e-17
1.04145e-08
-2.87778e-16
1.04145e-08
-5.48161e-16
1.04145e-08
-7.1198e-16
1.04145e-08
-6.57902e-16
1.04145e-08
-4.08891e-16
1.04145e-08
-1.18528e-16
1.04145e-08
1.06245e-16
1.04145e-08
2.6335e-16
1.04145e-08
2.40329e-16
7.5803e-16
1.10139e-08
1.07751e-15
1.10139e-08
3.18929e-16
1.10139e-08
-3.23261e-17
1.10139e-08
-5.24351e-17
1.10139e-08
-4.00959e-17
1.10139e-08
2.77326e-17
1.10139e-08
9.53382e-17
1.10139e-08
1.41011e-16
1.10139e-08
1.00873e-16
1.10139e-08
-5.42389e-17
1.10139e-08
-3.08495e-16
1.10139e-08
-6.08182e-16
1.10139e-08
-8.0314e-16
1.10139e-08
-7.51718e-16
1.10139e-08
-4.75544e-16
1.10139e-08
-1.46974e-16
1.10139e-08
1.10787e-16
1.10139e-08
2.92632e-16
1.10139e-08
2.75798e-16
8.32645e-16
1.87776e-08
1.23714e-15
1.87776e-08
4.04336e-16
1.87776e-08
-9.23499e-18
1.87776e-08
-4.71944e-17
1.87776e-08
-4.62933e-17
1.87776e-08
2.6928e-17
1.87776e-08
1.0909e-16
1.87776e-08
1.73632e-16
1.87776e-08
1.39858e-16
1.87776e-08
-3.55199e-17
1.87776e-08
-3.3782e-16
1.87776e-08
-7.03905e-16
1.87776e-08
-9.53279e-16
1.87776e-08
-9.09372e-16
1.87776e-08
-5.90136e-16
1.87776e-08
-1.9812e-16
1.87776e-08
1.15412e-16
1.87776e-08
3.39547e-16
1.87776e-08
3.3608e-16
9.48956e-16
2.14525e-08
1.40156e-15
2.14525e-08
5.02677e-16
2.14525e-08
2.34621e-17
2.14525e-08
-3.70928e-17
2.14525e-08
-5.18497e-17
2.14525e-08
2.53574e-17
2.14525e-08
1.23478e-16
2.14525e-08
2.10566e-16
2.14525e-08
1.86764e-16
2.14525e-08
-8.92155e-18
2.14525e-08
-3.63888e-16
2.14525e-08
-8.0476e-16
2.14525e-08
-1.11776e-15
2.14525e-08
-1.0863e-15
2.14525e-08
-7.22157e-16
2.14525e-08
-2.59987e-16
2.14525e-08
1.16695e-16
2.14525e-08
3.89189e-16
2.14525e-08
4.04652e-16
1.06842e-15
2.43734e-08
1.56953e-15
2.43734e-08
6.14394e-16
2.43734e-08
6.70974e-17
2.43734e-08
-2.1099e-17
2.43734e-08
-5.62366e-17
2.43734e-08
2.31825e-17
2.43734e-08
1.38476e-16
2.43734e-08
2.519e-16
2.43734e-08
2.42056e-16
2.43734e-08
2.63772e-17
2.43734e-08
-3.85802e-16
2.43734e-08
-9.10133e-16
2.43734e-08
-1.29668e-15
2.43734e-08
-1.28349e-15
2.43734e-08
-8.73163e-16
2.43734e-08
-3.34013e-16
2.43734e-08
1.13754e-16
2.43734e-08
4.41199e-16
2.43734e-08
4.82077e-16
1.19068e-15
2.75622e-08
1.73974e-15
2.75622e-08
7.39668e-16
2.75622e-08
1.23e-16
2.75622e-08
1.88392e-18
2.75622e-08
-5.87994e-17
2.75622e-08
2.06378e-17
2.75622e-08
1.54073e-16
2.75622e-08
2.97663e-16
2.75622e-08
3.06102e-16
2.75622e-08
7.11501e-17
2.75622e-08
-4.02613e-16
2.75622e-08
-1.01926e-15
2.75622e-08
-1.48991e-15
2.75622e-08
-1.50183e-15
2.75622e-08
-1.04474e-15
2.75622e-08
-4.21757e-16
2.75622e-08
1.05563e-16
2.75622e-08
4.95126e-16
2.75622e-08
5.68864e-16
1.31556e-15
3.10421e-08
1.91093e-15
3.10421e-08
8.78432e-16
3.10421e-08
1.92423e-16
3.10421e-08
3.30343e-17
3.10421e-08
-5.87561e-17
3.10421e-08
1.80434e-17
3.10421e-08
1.7028e-16
3.10421e-08
3.47805e-16
3.10421e-08
3.79134e-16
3.10421e-08
1.26101e-16
3.10421e-08
-4.13305e-16
3.10421e-08
-1.13121e-15
3.10421e-08
-1.6971e-15
3.10421e-08
-1.74203e-15
3.10421e-08
-1.23849e-15
3.10421e-08
-5.24943e-16
3.10421e-08
9.09194e-17
3.10421e-08
5.5037e-16
3.10421e-08
6.65426e-16
1.44304e-15
3.48382e-08
2.08183e-15
3.48382e-08
1.03036e-15
3.48382e-08
2.76504e-16
3.48382e-08
7.35955e-17
3.48382e-08
-5.51961e-17
3.48382e-08
1.58191e-17
3.48382e-08
1.87132e-16
3.48382e-08
4.02186e-16
3.48382e-08
4.61219e-16
3.48382e-08
1.91836e-16
3.48382e-08
-4.16809e-16
3.48382e-08
-1.24479e-15
3.48382e-08
-1.91753e-15
3.48382e-08
-2.00451e-15
3.48382e-08
-1.45593e-15
3.48382e-08
-6.45463e-16
3.48382e-08
6.84104e-17
3.48382e-08
6.06155e-16
3.48382e-08
7.72038e-16
1.57324e-15
3.89772e-08
2.25129e-15
3.89772e-08
1.19491e-15
3.89772e-08
3.76215e-16
3.89772e-08
1.24845e-16
3.89772e-08
-4.708e-17
3.89772e-08
1.45028e-17
3.89772e-08
2.04698e-16
3.89772e-08
4.60564e-16
3.89772e-08
5.52225e-16
3.89772e-08
2.6884e-16
3.89772e-08
-4.12009e-16
3.89772e-08
-1.3586e-15
3.89772e-08
-2.15011e-15
3.89772e-08
-2.28938e-15
3.89772e-08
-1.69852e-15
3.89772e-08
-7.85381e-16
3.89772e-08
3.63914e-17
3.89772e-08
6.61486e-16
3.89772e-08
8.88794e-16
1.70642e-15
4.34876e-08
2.41834e-15
4.34876e-08
1.37123e-15
4.34876e-08
4.92314e-16
4.34876e-08
1.88057e-16
4.34876e-08
-3.32366e-17
4.34876e-08
1.47649e-17
4.34876e-08
2.23081e-16
4.34876e-08
5.22595e-16
4.34876e-08
6.51795e-16
4.34876e-08
3.57439e-16
4.34876e-08
-3.97773e-16
4.34876e-08
-1.47098e-15
4.34876e-08
-2.39329e-15
4.34876e-08
-2.59632e-15
4.34876e-08
-1.96755e-15
4.34876e-08
-9.46918e-16
4.34876e-08
-7.03963e-18
4.34876e-08
7.15128e-16
4.34876e-08
1.01551e-15
1.84296e-15
4.84004e-08
2.58222e-15
4.84004e-08
1.55828e-15
4.84004e-08
6.25298e-16
4.84004e-08
2.64456e-16
4.84004e-08
-1.23736e-17
4.84004e-08
1.74144e-17
4.84004e-08
2.42429e-16
4.84004e-08
5.87837e-16
4.84004e-08
7.5932e-16
4.84004e-08
4.57769e-16
4.84004e-08
-3.72984e-16
4.84004e-08
-1.58003e-15
4.84004e-08
-2.64505e-15
4.84004e-08
-2.92451e-15
4.84004e-08
-2.26404e-15
4.84004e-08
-1.13243e-15
4.84004e-08
-6.40695e-17
4.84004e-08
7.65561e-16
4.84004e-08
1.15167e-15
1.98334e-15
5.37484e-08
2.74248e-15
5.37484e-08
1.75482e-15
5.37484e-08
7.75362e-16
5.37484e-08
3.55175e-16
5.37484e-08
1.68964e-17
5.37484e-08
2.33921e-17
5.37484e-08
2.62958e-16
5.37484e-08
6.55759e-16
5.37484e-08
8.73915e-16
5.37484e-08
5.69697e-16
5.37484e-08
-3.36548e-16
5.37484e-08
-1.68357e-15
5.37484e-08
-2.90282e-15
5.37484e-08
-3.27254e-15
5.37484e-08
-2.58868e-15
5.37484e-08
-1.34436e-15
5.37484e-08
-1.37198e-16
5.37484e-08
8.10919e-16
5.37484e-08
1.29637e-15
2.12808e-15
5.95674e-08
2.899e-15
5.95674e-08
1.95945e-15
5.95674e-08
9.42374e-16
5.95674e-08
4.61209e-16
5.95674e-08
5.60223e-17
5.95674e-08
3.37707e-17
5.95674e-08
2.84969e-16
5.95674e-08
7.25749e-16
5.95674e-08
9.94411e-16
5.95674e-08
6.92766e-16
5.95674e-08
-2.87438e-16
5.95674e-08
-1.77914e-15
5.95674e-08
-3.1635e-15
5.95674e-08
-3.63832e-15
5.95674e-08
-2.94171e-15
5.95674e-08
-1.58513e-15
5.95674e-08
-2.29258e-16
5.95674e-08
8.48936e-16
5.95674e-08
1.44824e-15
2.27771e-15
6.58954e-08
3.05201e-15
6.58954e-08
2.17073e-15
6.58954e-08
1.12586e-15
6.58954e-08
5.83371e-16
6.58954e-08
1.06478e-16
6.58954e-08
4.97475e-17
6.58954e-08
3.08854e-16
6.58954e-08
7.97128e-16
6.58954e-08
1.11935e-15
6.58954e-08
8.26141e-16
6.58954e-08
-2.24755e-16
6.58954e-08
-1.86403e-15
6.58954e-08
-3.42345e-15
6.58954e-08
-4.019e-15
6.58954e-08
-3.32281e-15
6.58954e-08
-1.85707e-15
6.58954e-08
-3.43419e-16
6.58954e-08
8.76905e-16
6.58954e-08
1.60541e-15
2.43266e-15
7.27736e-08
3.20209e-15
7.27736e-08
2.3872e-15
7.27736e-08
1.32499e-15
7.27736e-08
7.22247e-16
7.27736e-08
1.69727e-16
7.27736e-08
7.26224e-17
7.27736e-08
3.35102e-16
7.27736e-08
8.69175e-16
7.27736e-08
1.24702e-15
7.27736e-08
9.68567e-16
7.27736e-08
-1.4781e-16
7.27736e-08
-1.93538e-15
7.27736e-08
-3.67845e-15
7.27736e-08
-4.41086e-15
7.27736e-08
-3.7309e-15
7.27736e-08
-2.16229e-15
7.27736e-08
-4.83143e-16
7.27736e-08
8.91669e-16
7.27736e-08
1.76538e-15
2.59314e-15
8.02462e-08
3.35017e-15
8.02462e-08
2.6075e-15
8.02462e-08
1.53865e-15
8.02462e-08
8.78152e-16
8.02462e-08
2.47172e-16
8.02462e-08
1.03775e-16
8.02462e-08
3.64301e-16
8.02462e-08
9.41162e-16
8.02462e-08
1.37547e-15
8.02462e-08
1.11834e-15
8.02462e-08
-5.62292e-17
8.02462e-08
-1.99022e-15
8.02462e-08
-3.92379e-15
8.02462e-08
-4.80929e-15
8.02462e-08
-4.16405e-15
8.02462e-08
-2.50252e-15
8.02462e-08
-6.52152e-16
8.02462e-08
8.89604e-16
8.02462e-08
1.92503e-15
2.75903e-15
8.83606e-08
3.4974e-15
8.83606e-08
2.83037e-15
8.83606e-08
1.76543e-15
8.83606e-08
1.0511e-15
8.83606e-08
3.40101e-16
8.83606e-08
1.44638e-16
8.83606e-08
3.97145e-16
8.83606e-08
1.01239e-15
8.83606e-08
1.50255e-15
8.83606e-08
1.27329e-15
8.83606e-08
4.99507e-17
8.83606e-08
-2.02561e-15
8.83606e-08
-4.15426e-15
8.83606e-08
-5.20872e-15
8.83606e-08
-4.61925e-15
8.83606e-08
-2.87891e-15
8.83606e-08
-8.5436e-16
8.83606e-08
8.66634e-16
8.83606e-08
2.08052e-15
2.92972e-15
9.71679e-08
3.64506e-15
9.71679e-08
3.0548e-15
9.71679e-08
2.00372e-15
9.71679e-08
1.24076e-15
9.71679e-08
4.49628e-16
9.71679e-08
1.96652e-16
9.71679e-08
4.34424e-16
9.71679e-08
1.08221e-15
9.71679e-08
1.62603e-15
9.71679e-08
1.43075e-15
9.71679e-08
1.70167e-16
9.71679e-08
-2.03875e-15
9.71679e-08
-4.36433e-15
9.71679e-08
-5.60265e-15
9.71679e-08
-5.09229e-15
9.71679e-08
-3.29179e-15
9.71679e-08
-1.09379e-15
9.71679e-08
8.18266e-16
9.71679e-08
2.22734e-15
3.10392e-15
1.06723e-07
3.79435e-15
1.06723e-07
3.27997e-15
1.06723e-07
2.25186e-15
1.06723e-07
1.4465e-15
1.06723e-07
5.76623e-16
1.06723e-07
2.61222e-16
1.06723e-07
4.77022e-16
1.06723e-07
1.15009e-15
1.06723e-07
1.74364e-15
1.06723e-07
1.58763e-15
1.06723e-07
3.03259e-16
1.06723e-07
-2.02717e-15
1.06723e-07
-4.54823e-15
1.06723e-07
-5.98374e-15
1.06723e-07
-5.57754e-15
1.06723e-07
-3.74039e-15
1.06723e-07
-1.37433e-15
1.06723e-07
7.39545e-16
1.06723e-07
2.36018e-15
3.27961e-15
1.17086e-07
3.9462e-15
1.17086e-07
3.50531e-15
1.17086e-07
2.50818e-15
1.17086e-07
1.66735e-15
1.17086e-07
7.21646e-16
1.17086e-07
3.39666e-16
1.17086e-07
5.2589e-16
1.17086e-07
1.21562e-15
1.17086e-07
1.85312e-15
1.17086e-07
1.7405e-15
1.17086e-07
4.47406e-16
1.17086e-07
-1.98891e-15
1.17086e-07
-4.70017e-15
1.17086e-07
-6.34386e-15
1.17086e-07
-6.06791e-15
1.17086e-07
-4.22248e-15
1.17086e-07
-1.69943e-15
1.17086e-07
6.25101e-16
1.17086e-07
2.47292e-15
3.45395e-15
1.28319e-07
4.10099e-15
1.28319e-07
3.73034e-15
1.28319e-07
2.77113e-15
1.28319e-07
1.90215e-15
1.28319e-07
8.84928e-16
1.28319e-07
4.3315e-16
1.28319e-07
5.82007e-16
1.28319e-07
1.27854e-15
1.28319e-07
1.95238e-15
1.28319e-07
1.88574e-15
1.28319e-07
6.0003e-16
1.28319e-07
-1.92275e-15
1.28319e-07
-4.81455e-15
1.28319e-07
-6.67431e-15
1.28319e-07
-6.55486e-15
1.28319e-07
-4.73416e-15
1.28319e-07
-2.07166e-15
1.28319e-07
4.69248e-16
1.28319e-07
2.5586e-15
3.62316e-15
1.40491e-07
4.25825e-15
1.40491e-07
3.95464e-15
1.40491e-07
3.03926e-15
1.40491e-07
2.14958e-15
1.40491e-07
1.06635e-15
1.40491e-07
5.42621e-16
1.40491e-07
6.46324e-16
1.40491e-07
1.33876e-15
1.40491e-07
2.03954e-15
1.40491e-07
2.01966e-15
1.40491e-07
7.57691e-16
1.40491e-07
-1.82839e-15
1.40491e-07
-4.88603e-15
1.40491e-07
-6.96598e-15
1.40491e-07
-7.02849e-15
1.40491e-07
-5.26959e-15
1.40491e-07
-2.49232e-15
1.40491e-07
2.66154e-16
1.40491e-07
2.60965e-15
3.78244e-15
1.53675e-07
4.41636e-15
1.53675e-07
4.17761e-15
1.53675e-07
3.31131e-15
1.53675e-07
2.40823e-15
1.53675e-07
1.26547e-15
1.53675e-07
6.68741e-16
1.53675e-07
7.19738e-16
1.53675e-07
1.39637e-15
1.53675e-07
2.11308e-15
1.53675e-07
2.13871e-15
1.53675e-07
9.16172e-16
1.53675e-07
-1.70655e-15
1.53675e-07
-4.90977e-15
1.53675e-07
-7.20966e-15
1.53675e-07
-7.47792e-15
1.53675e-07
-5.82073e-15
1.53675e-07
-2.96094e-15
1.53675e-07
1.00198e-17
1.53675e-07
2.61797e-15
3.9259e-15
1.67952e-07
4.57216e-15
1.67952e-07
4.39828e-15
1.67952e-07
3.58609e-15
1.67952e-07
2.67666e-15
1.67952e-07
1.48151e-15
1.67952e-07
8.11823e-16
1.67952e-07
8.03065e-16
1.67952e-07
1.45167e-15
1.67952e-07
2.17187e-15
1.67952e-07
2.23958e-15
1.67952e-07
1.07069e-15
1.67952e-07
-1.55914e-15
1.67952e-07
-4.88168e-15
1.67952e-07
-7.39641e-15
1.67952e-07
-7.89151e-15
1.67952e-07
-6.37719e-15
1.67952e-07
-3.47477e-15
1.67952e-07
-3.04593e-16
1.67952e-07
2.57529e-15
4.04673e-15
1.83405e-07
4.72058e-15
1.83405e-07
4.61509e-15
1.83405e-07
3.86237e-15
1.83405e-07
2.95343e-15
1.83405e-07
1.71345e-15
1.83405e-07
9.7184e-16
1.83405e-07
8.96957e-16
1.83405e-07
1.50519e-15
1.83405e-07
2.21531e-15
1.83405e-07
2.31933e-15
1.83405e-07
1.2161e-15
1.83405e-07
-1.38938e-15
1.83405e-07
-4.79906e-15
1.83405e-07
-7.5179e-15
1.83405e-07
-8.2569e-15
1.83405e-07
-6.92642e-15
1.83405e-07
-4.02846e-15
1.83405e-07
-6.82194e-16
1.83405e-07
2.47349e-15
4.13728e-15
2.00127e-07
4.85507e-15
2.00127e-07
4.82552e-15
2.00127e-07
4.13871e-15
2.00127e-07
3.2371e-15
2.00127e-07
1.9601e-15
2.00127e-07
1.14848e-15
2.00127e-07
1.00185e-15
2.00127e-07
1.55758e-15
2.00127e-07
2.24339e-15
2.00127e-07
2.37564e-15
2.00127e-07
1.34721e-15
2.00127e-07
-1.20215e-15
2.00127e-07
-4.6609e-15
2.00127e-07
-7.56656e-15
2.00127e-07
-8.56151e-15
2.00127e-07
-7.45377e-15
2.00127e-07
-4.61367e-15
2.00127e-07
-1.12515e-15
2.00127e-07
2.30451e-15
4.18864e-15
2.18215e-07
4.96797e-15
2.18215e-07
5.02562e-15
2.18215e-07
4.41318e-15
2.18215e-07
3.52613e-15
2.18215e-07
2.22011e-15
2.18215e-07
1.34117e-15
2.18215e-07
1.11795e-15
2.18215e-07
1.60964e-15
2.18215e-07
2.25672e-15
2.18215e-07
2.40689e-15
2.18215e-07
1.459e-15
2.18215e-07
-1.00379e-15
2.18215e-07
-4.46814e-15
2.18215e-07
-7.53615e-15
2.18215e-07
-8.79316e-15
2.18215e-07
-7.94279e-15
2.18215e-07
-5.21875e-15
2.18215e-07
-1.63276e-15
2.18215e-07
2.0605e-15
4.19079e-15
2.37775e-07
5.05064e-15
2.37775e-07
5.2097e-15
2.37775e-07
4.68296e-15
2.37775e-07
3.81875e-15
2.37775e-07
2.49203e-15
2.37775e-07
1.5491e-15
2.37775e-07
1.24516e-15
2.37775e-07
1.66214e-15
2.37775e-07
2.25657e-15
2.37775e-07
2.41249e-15
2.37775e-07
1.54679e-15
2.37775e-07
-8.01755e-16
2.37775e-07
-4.22378e-15
2.37775e-07
-7.42247e-15
2.37775e-07
-8.9407e-15
2.37775e-07
-8.37586e-15
2.37775e-07
-5.82859e-15
2.37775e-07
-2.20047e-15
2.37775e-07
1.73437e-15
4.13305e-15
2.58922e-07
5.09339e-15
2.58922e-07
5.37045e-15
2.58922e-07
4.94399e-15
2.58922e-07
4.11266e-15
2.58922e-07
2.77418e-15
2.58922e-07
1.77114e-15
2.58922e-07
1.38324e-15
2.58922e-07
1.71604e-15
2.58922e-07
2.24462e-15
2.58922e-07
2.39284e-15
2.58922e-07
1.60689e-15
2.58922e-07
-6.04031e-16
2.58922e-07
-3.93406e-15
2.58922e-07
-7.22279e-15
2.58922e-07
-8.99359e-15
2.58922e-07
-8.73633e-15
2.58922e-07
-6.42462e-15
2.58922e-07
-2.8192e-15
2.58922e-07
1.32093e-15
4.00437e-15
2.81777e-07
5.08514e-15
2.81777e-07
5.4994e-15
2.81777e-07
5.1906e-15
2.81777e-07
4.40475e-15
2.81777e-07
3.06446e-15
2.81777e-07
2.00596e-15
2.81777e-07
1.53183e-15
2.81777e-07
1.77223e-15
2.81777e-07
2.22329e-15
2.81777e-07
2.34912e-15
2.81777e-07
1.6364e-15
2.81777e-07
-4.18085e-16
2.81777e-07
-3.60819e-15
2.81777e-07
-6.9366e-15
2.81777e-07
-8.94299e-15
2.81777e-07
-9.00929e-15
2.81777e-07
-6.98523e-15
2.81777e-07
-3.4751e-15
2.81777e-07
8.18853e-16
3.79358e-15
3.06472e-07
5.01391e-15
3.06472e-07
5.58712e-15
3.06472e-07
5.41509e-15
3.06472e-07
4.6907e-15
3.06472e-07
3.36026e-15
3.06472e-07
2.25197e-15
3.06472e-07
1.69038e-15
3.06472e-07
1.83153e-15
3.06472e-07
2.19517e-15
3.06472e-07
2.2837e-15
3.06472e-07
1.63395e-15
3.06472e-07
-2.50985e-16
3.06472e-07
-3.25751e-15
3.06472e-07
-6.56623e-15
3.06472e-07
-8.78279e-15
3.06472e-07
-9.18192e-15
3.06472e-07
-7.48713e-15
3.06472e-07
-4.14918e-15
3.06472e-07
2.31982e-16
3.49007e-15
3.33148e-07
4.86706e-15
3.33148e-07
5.62297e-15
3.33148e-07
5.60813e-15
3.33148e-07
4.96459e-15
3.33148e-07
3.65828e-15
3.33148e-07
2.50721e-15
3.33148e-07
1.85811e-15
3.33148e-07
1.89465e-15
3.33148e-07
2.16293e-15
3.33148e-07
2.20002e-15
3.33148e-07
1.59991e-15
3.33148e-07
-1.08889e-16
3.33148e-07
-2.8947e-15
3.33148e-07
-6.11977e-15
3.33148e-07
-8.50837e-15
3.33148e-07
-9.24127e-15
3.33148e-07
-7.90857e-15
3.33148e-07
-4.81795e-15
3.33148e-07
-4.30022e-16
3.08581e-15
3.61957e-07
4.63137e-15
3.61957e-07
5.59476e-15
3.61957e-07
5.7599e-15
3.61957e-07
5.21854e-15
3.61957e-07
3.954e-15
3.61957e-07
2.7692e-15
3.61957e-07
2.03394e-15
3.61957e-07
1.96227e-15
3.61957e-07
2.1293e-15
3.61957e-07
2.10218e-15
3.61957e-07
1.53641e-15
3.61957e-07
3.61783e-18
3.61957e-07
-2.53273e-15
3.61957e-07
-5.61042e-15
3.61957e-07
-8.11839e-15
3.61957e-07
-9.17589e-15
3.61957e-07
-8.2298e-15
3.61957e-07
-5.45433e-15
3.61957e-07
-1.15124e-15
2.57742e-15
3.93061e-07
4.29442e-15
3.93061e-07
5.48989e-15
3.93061e-07
5.86018e-15
3.93061e-07
5.44248e-15
3.93061e-07
4.24135e-15
3.93061e-07
3.03472e-15
3.93061e-07
2.21662e-15
3.93061e-07
2.0348e-15
3.93061e-07
2.0969e-15
3.93061e-07
1.99474e-15
3.93061e-07
1.44723e-15
3.93061e-07
8.40161e-17
3.93061e-07
-2.18364e-15
3.93061e-07
-5.05546e-15
3.93061e-07
-7.61571e-15
3.93061e-07
-8.97726e-15
3.93061e-07
-8.4345e-15
3.93061e-07
-6.02889e-15
3.93061e-07
-1.90917e-15
1.9674e-15
4.26637e-07
3.84774e-15
4.26637e-07
5.29516e-15
4.26637e-07
5.89648e-15
4.26637e-07
5.62525e-15
4.26637e-07
4.51242e-15
4.26637e-07
3.29965e-15
4.26637e-07
2.40448e-15
4.26637e-07
2.11204e-15
4.26637e-07
2.06785e-15
4.26637e-07
1.8825e-15
4.26637e-07
1.33781e-15
4.26637e-07
1.32108e-16
4.26637e-07
-1.85771e-15
4.26637e-07
-4.47442e-15
4.26637e-07
-7.01109e-15
4.26637e-07
-8.63951e-15
4.26637e-07
-8.50751e-15
4.26637e-07
-6.51403e-15
4.26637e-07
-2.67492e-15
1.2658e-15
4.62872e-07
3.28865e-15
4.62872e-07
4.9974e-15
4.62872e-07
5.85471e-15
4.62872e-07
5.75577e-15
4.62872e-07
4.75707e-15
4.62872e-07
3.55816e-15
4.62872e-07
2.59512e-15
4.62872e-07
2.19372e-15
4.62872e-07
2.04372e-15
4.62872e-07
1.7702e-15
4.62872e-07
1.21479e-15
4.62872e-07
1.49996e-16
4.62872e-07
-1.56299e-15
4.62872e-07
-3.88716e-15
4.62872e-07
-6.3228e-15
4.62872e-07
-8.16229e-15
4.62872e-07
-8.43646e-15
4.62872e-07
-6.88455e-15
4.62872e-07
-3.41423e-15
4.91267e-16
5.01968e-07
2.62177e-15
5.01968e-07
4.58547e-15
5.01968e-07
5.72147e-15
5.01968e-07
5.82318e-15
5.01968e-07
4.96238e-15
5.01968e-07
3.80224e-15
5.01968e-07
2.78506e-15
5.01968e-07
2.27939e-15
5.01968e-07
2.02565e-15
5.01968e-07
1.66212e-15
5.01968e-07
1.08522e-15
5.01968e-07
1.42027e-16
5.01968e-07
-1.30462e-15
5.01968e-07
-3.31238e-15
5.01968e-07
-5.57402e-15
5.01968e-07
-7.55145e-15
5.01968e-07
-8.21483e-15
5.01968e-07
-7.11937e-15
5.01968e-07
-4.08976e-15
-3.29448e-16
5.44144e-07
1.86088e-15
5.44144e-07
4.05422e-15
5.44144e-07
5.48327e-15
5.44144e-07
5.81497e-15
5.44144e-07
5.11532e-15
5.44144e-07
4.0219e-15
5.44144e-07
2.96941e-15
5.44144e-07
2.3676e-15
5.44144e-07
2.01411e-15
5.44144e-07
1.56191e-15
5.44144e-07
9.56089e-16
5.44144e-07
1.14485e-16
5.44144e-07
-1.08445e-15
5.44144e-07
-2.76567e-15
5.44144e-07
-4.79184e-15
5.44144e-07
-6.82262e-15
5.44144e-07
-7.83761e-15
5.44144e-07
-7.20124e-15
5.44144e-07
-4.66847e-15
-1.16216e-15
5.89633e-07
1.03063e-15
5.89633e-07
3.40533e-15
5.89633e-07
5.12766e-15
5.89633e-07
5.71852e-15
5.89633e-07
5.20413e-15
5.89633e-07
4.20457e-15
5.89633e-07
3.14146e-15
5.89633e-07
2.45601e-15
5.89633e-07
2.00856e-15
5.89633e-07
1.47211e-15
5.89633e-07
8.33907e-16
5.89633e-07
7.50558e-17
5.89633e-07
-9.01027e-16
5.89633e-07
-2.25927e-15
5.89633e-07
-4.00428e-15
5.89633e-07
-5.99933e-15
5.89633e-07
-7.30628e-15
5.89633e-07
-7.11946e-15
5.89633e-07
-5.12193e-15
-1.96626e-15
6.38685e-07
1.65309e-16
6.38685e-07
2.64998e-15
6.38685e-07
4.64746e-15
6.38685e-07
5.52062e-15
6.38685e-07
5.217e-15
6.38685e-07
4.33738e-15
6.38685e-07
3.2925e-15
6.38685e-07
2.54086e-15
6.38685e-07
2.0073e-15
6.38685e-07
1.39393e-15
6.38685e-07
7.24158e-16
6.38685e-07
3.21126e-17
6.38685e-07
-7.49851e-16
6.38685e-07
-1.80126e-15
6.38685e-07
-3.23763e-15
6.38685e-07
-5.11235e-15
6.38685e-07
-6.6309e-15
6.38685e-07
-6.87223e-15
6.38685e-07
-5.42696e-15
-2.69733e-15
6.91571e-07
-6.93082e-16
6.91571e-07
1.81053e-15
6.91571e-07
4.04397e-15
6.91571e-07
5.20893e-15
6.91571e-07
5.14176e-15
6.91571e-07
4.40831e-15
6.91571e-07
3.41189e-15
6.91571e-07
2.6165e-15
6.91571e-07
2.00735e-15
6.91571e-07
1.32713e-15
6.91571e-07
6.3084e-16
6.91571e-07
-6.27697e-18
6.91571e-07
-6.24089e-16
6.91571e-07
-1.39501e-15
6.91571e-07
-2.5141e-15
6.91571e-07
-4.19647e-15
6.91571e-07
-5.83244e-15
6.91571e-07
-6.46307e-15
6.91571e-07
-5.56677e-15
-3.31581e-15
7.48579e-07
-1.49743e-15
7.48579e-07
9.21094e-16
7.48579e-07
3.32772e-15
7.48579e-07
4.7761e-15
7.48579e-07
4.96815e-15
7.48579e-07
4.40575e-15
7.48579e-07
3.48698e-15
7.48579e-07
2.67505e-15
7.48579e-07
2.00433e-15
7.48579e-07
1.26994e-15
7.48579e-07
5.56057e-16
7.48579e-07
-3.33747e-17
7.48579e-07
-5.15431e-16
7.48579e-07
-1.03929e-15
7.48579e-07
-1.84937e-15
7.48579e-07
-3.2879e-15
7.48579e-07
-4.94243e-15
7.48579e-07
-5.90002e-15
7.48579e-07
-5.53439e-15
-3.79145e-15
8.10021e-07
-2.19981e-15
8.10021e-07
2.59619e-17
8.10021e-07
2.52055e-15
8.10021e-07
4.22344e-15
8.10021e-07
4.68723e-15
8.10021e-07
4.3183e-15
8.10021e-07
3.50623e-15
8.10021e-07
2.70656e-15
8.10021e-07
1.99229e-15
8.10021e-07
1.21911e-15
8.10021e-07
4.99716e-16
8.10021e-07
-4.46654e-17
8.10021e-07
-4.15206e-16
8.10021e-07
-7.28906e-16
8.10021e-07
-1.25296e-15
8.10021e-07
-2.41954e-15
8.10021e-07
-4.00098e-15
8.10021e-07
-5.20075e-15
8.10021e-07
-5.33411e-15
-4.10234e-15
8.7623e-07
-2.75979e-15
8.7623e-07
-8.23784e-16
8.7623e-07
1.65718e-15
8.7623e-07
3.56086e-15
8.7623e-07
4.29408e-15
8.7623e-07
4.13813e-15
8.7623e-07
3.45919e-15
8.7623e-07
2.69939e-15
8.7623e-07
1.96357e-15
8.7623e-07
1.17e-15
8.7623e-07
4.59345e-16
8.7623e-07
-3.84598e-17
8.7623e-07
-3.15605e-16
8.7623e-07
-4.55882e-16
8.7623e-07
-7.28114e-16
8.7623e-07
-1.6174e-15
8.7623e-07
-3.05183e-15
8.7623e-07
-4.39517e-15
8.7623e-07
-4.97959e-15
-4.23602e-15
9.47566e-07
-3.14973e-15
9.47566e-07
-1.57698e-15
9.47566e-07
7.82806e-16
9.47566e-07
2.8109e-15
9.47566e-07
3.79206e-15
9.47566e-07
3.85942e-15
9.47566e-07
3.33654e-15
9.47566e-07
2.64249e-15
9.47566e-07
1.90923e-15
9.47566e-07
1.11646e-15
9.47566e-07
4.30034e-16
9.47566e-07
-1.60378e-17
9.47566e-07
-2.10957e-16
9.47566e-07
-2.10992e-16
9.47566e-07
-2.72179e-16
9.47566e-07
-8.98367e-16
9.47566e-07
-2.13773e-15
9.47566e-07
-3.52494e-15
9.47566e-07
-4.48952e-15
-4.1924e-15
1.02441e-06
-3.3557e-15
1.02441e-06
-2.1867e-15
1.02441e-06
-5.00007e-17
1.02441e-06
2.00883e-15
1.02441e-06
3.19442e-15
1.02441e-06
3.48163e-15
1.02441e-06
3.13115e-15
1.02441e-06
2.52607e-15
1.02441e-06
1.82011e-15
1.02441e-06
1.05097e-15
1.02441e-06
4.04844e-16
1.02441e-06
1.83992e-17
1.02441e-06
-9.89348e-17
1.02441e-06
1.4523e-17
1.02441e-06
1.22076e-16
1.02441e-06
-2.70853e-16
1.02441e-06
-1.29472e-15
1.02441e-06
-2.63735e-15
1.02441e-06
-3.89105e-15
-3.98759e-15
1.10719e-06
-3.37567e-15
1.10719e-06
-2.62022e-15
1.10719e-06
-7.87424e-16
1.10719e-06
1.20158e-15
1.10719e-06
2.52519e-15
1.10719e-06
3.01218e-15
1.10719e-06
2.83982e-15
1.10719e-06
2.34242e-15
1.10719e-06
1.68786e-15
1.10719e-06
9.65211e-16
1.10719e-06
3.7572e-16
1.10719e-06
5.80422e-17
1.10719e-06
1.82308e-17
1.10719e-06
2.27392e-16
1.10719e-06
4.64649e-16
1.10719e-06
2.64829e-16
1.10719e-06
-5.48643e-16
1.10719e-06
-1.7801e-15
1.10719e-06
-3.22409e-15
-3.64686e-15
1.19633e-06
-3.2217e-15
1.19633e-06
-2.86202e-15
1.19633e-06
-1.38343e-15
1.19633e-06
4.42405e-16
1.19633e-06
1.82071e-15
1.19633e-06
2.4685e-15
1.19633e-06
2.46574e-15
1.19633e-06
2.08748e-15
1.19633e-06
1.50565e-15
1.19633e-06
8.50521e-16
1.19633e-06
3.33631e-16
1.19633e-06
9.36914e-17
1.19633e-06
1.34799e-16
1.19633e-06
4.30904e-16
1.19633e-06
7.66094e-16
1.19633e-06
7.1514e-16
1.19633e-06
8.69421e-17
1.19633e-06
-9.95061e-16
1.19633e-06
-2.53906e-15
-3.20082e-15
1.29232e-06
-2.92111e-15
1.29232e-06
-2.91426e-15
1.29232e-06
-1.80407e-15
1.29232e-06
-2.14517e-16
1.29232e-06
1.12831e-15
1.29232e-06
1.87823e-15
1.29232e-06
2.02068e-15
1.29232e-06
1.76272e-15
1.29232e-06
1.26938e-15
1.29232e-06
6.98992e-16
1.29232e-06
2.69171e-16
1.29232e-06
1.14225e-16
1.29232e-06
2.42201e-16
1.29232e-06
6.24089e-16
1.29232e-06
1.03532e-15
1.29232e-06
1.09106e-15
1.29232e-06
6.10946e-16
1.29232e-06
-3.13655e-16
1.29232e-06
-1.88875e-15
-2.68885e-15
1.39567e-06
-2.51004e-15
1.39567e-06
-2.79548e-15
1.39567e-06
-2.03347e-15
1.39567e-06
-7.21866e-16
1.39567e-06
5.01461e-16
1.39567e-06
1.27951e-15
1.39567e-06
1.52651e-15
1.39567e-06
1.37695e-15
1.39567e-06
9.79218e-16
1.39567e-06
5.05032e-16
1.39567e-06
1.72821e-16
1.39567e-06
1.077e-16
1.39567e-06
3.29742e-16
1.39567e-06
8.01848e-16
1.39567e-06
1.27768e-15
1.39567e-06
1.40515e-15
1.39567e-06
1.03147e-15
1.39567e-06
2.47686e-16
1.39567e-06
-1.31945e-15
-2.16236e-15
1.50693e-06
-2.0336e-15
1.50693e-06
-2.5376e-15
1.50693e-06
-2.0768e-15
1.50693e-06
-1.05052e-15
1.50693e-06
-8.53305e-18
1.50693e-06
7.20003e-16
1.50693e-06
1.01513e-15
1.50693e-06
9.47751e-16
1.50693e-06
6.41391e-16
1.50693e-06
2.66941e-16
1.50693e-06
3.53865e-17
1.50693e-06
6.26741e-17
1.50693e-06
3.8636e-16
1.50693e-06
9.55456e-16
1.50693e-06
1.49367e-15
1.50693e-06
1.66857e-15
1.50693e-06
1.36301e-15
1.50693e-06
6.87591e-16
1.50693e-06
-8.64389e-16
-1.67239e-15
1.62668e-06
-1.54509e-15
1.62668e-06
-2.18128e-15
1.62668e-06
-1.95854e-15
1.62668e-06
-1.19346e-15
1.62668e-06
-3.62437e-16
1.62668e-06
2.5068e-16
1.62668e-06
5.28294e-16
1.62668e-06
5.02034e-16
1.62668e-06
2.6933e-16
1.62668e-06
-1.20263e-17
1.62668e-06
-1.48186e-16
1.62668e-06
-2.95772e-17
1.62668e-06
3.99982e-16
1.62668e-06
1.07347e-15
1.62668e-06
1.67851e-15
1.62668e-06
1.88819e-15
1.62668e-06
1.623e-15
1.62668e-06
1.01716e-15
1.62668e-06
-5.3924e-16