/*--------------------------------*- C++ -*----------------------------------*\
  =========                 |
  \\      /  F ield         | OpenFOAM: The Open Source CFD Toolbox
   \\    /   O peration     | Website:  https://openfoam.org
    \\  /    A nd           | Version:  6
     \\/     M anipulation  |
\*---------------------------------------------------------------------------*/
FoamFile
{
    version     2.0;
    format      ascii;
    class       surfaceScalarField;
    location    "19.44";
    object      phi_0;
}
// * * * * * * * * * * * * * * * * * * * * * * * * * * * * * * * * * * * * * //

dimensions      [0 3 -1 0 0 0 0];

internalField   nonuniform List<scalar> 
6298
(
1.01611e-09
3.28686e-17
1.01611e-09
3.57379e-19
1.01611e-09
-6.45263e-18
1.01611e-09
-3.62547e-18
1.01611e-09
9.19995e-21
1.01611e-09
3.03517e-18
1.01611e-09
3.87792e-18
1.01611e-09
1.90079e-18
1.01611e-09
-2.96367e-18
1.01611e-09
-9.57979e-18
1.01611e-09
-1.61014e-17
1.01611e-09
-2.06018e-17
1.01611e-09
-2.0019e-17
1.01611e-09
-1.35429e-17
1.01611e-09
-4.23079e-18
1.01611e-09
3.56002e-18
1.01611e-09
7.81803e-18
1.01611e-09
9.60337e-18
1.01611e-09
5.33157e-18
2.883e-17
2.54962e-09
9.43404e-17
2.54962e-09
4.88992e-18
2.54962e-09
-1.67242e-17
2.54962e-09
-9.82298e-18
2.54962e-09
-7.01738e-19
2.54962e-09
7.71289e-18
2.54962e-09
1.06588e-17
2.54962e-09
6.40113e-18
2.54962e-09
-6.13228e-18
2.54962e-09
-2.42936e-17
2.54962e-09
-4.34604e-17
2.54962e-09
-5.81533e-17
2.54962e-09
-5.87997e-17
2.54962e-09
-4.18878e-17
2.54962e-09
-1.55327e-17
2.54962e-09
7.27605e-18
2.54962e-09
2.05981e-17
2.54962e-09
2.7007e-17
2.54962e-09
1.59638e-17
8.07357e-17
3.82218e-09
1.71886e-16
3.82218e-09
1.43902e-17
3.82218e-09
-2.77361e-17
3.82218e-09
-1.69717e-17
3.82218e-09
-2.18681e-18
3.82218e-09
1.27405e-17
3.82218e-09
1.88844e-17
3.82218e-09
1.31102e-17
3.82218e-09
-7.77914e-18
3.82218e-09
-3.9878e-17
3.82218e-09
-7.56351e-17
3.82218e-09
-1.0507e-16
3.82218e-09
-1.09529e-16
3.82218e-09
-8.09142e-17
3.82218e-09
-3.3173e-17
3.82218e-09
9.27319e-18
3.82218e-09
3.52188e-17
3.82218e-09
4.87256e-17
3.82218e-09
3.03214e-17
1.44398e-16
4.92799e-09
2.59383e-16
4.92799e-09
2.90036e-17
4.92799e-09
-3.8006e-17
4.92799e-09
-2.42753e-17
4.92799e-09
-4.36991e-18
4.92799e-09
1.75994e-17
4.92799e-09
2.79491e-17
4.92799e-09
2.18552e-17
4.92799e-09
-7.16738e-18
4.92799e-09
-5.45204e-17
4.92799e-09
-1.09852e-16
4.92799e-09
-1.5802e-16
4.92799e-09
-1.69137e-16
4.92799e-09
-1.28674e-16
4.92799e-09
-5.66805e-17
4.92799e-09
8.89372e-18
4.92799e-09
5.04309e-17
4.92799e-09
7.3279e-17
4.92799e-09
4.77745e-17
2.14609e-16
5.91478e-09
3.5327e-16
5.91478e-09
4.8644e-17
5.91478e-09
-4.67063e-17
5.91478e-09
-3.12524e-17
5.91478e-09
-7.15084e-18
5.91478e-09
2.20529e-17
5.91478e-09
3.75444e-17
5.91478e-09
3.25248e-17
5.91478e-09
-3.94774e-18
5.91478e-09
-6.73136e-17
5.91478e-09
-1.44674e-16
5.91478e-09
-2.15208e-16
5.91478e-09
-2.35901e-16
5.91478e-09
-1.84018e-16
5.91478e-09
-8.57009e-17
5.91478e-09
5.88116e-18
5.91478e-09
6.5635e-17
5.91478e-09
9.98863e-17
5.91478e-09
6.80056e-17
2.88504e-16
6.81075e-09
4.51236e-16
6.81075e-09
7.31224e-17
6.81075e-09
-5.33297e-17
6.81075e-09
-3.75783e-17
6.81075e-09
-1.0423e-17
6.81075e-09
2.59912e-17
6.81075e-09
4.749e-17
6.81075e-09
4.50196e-17
6.81075e-09
2.0371e-18
6.81075e-09
-7.77701e-17
6.81075e-09
-1.79267e-16
6.81075e-09
-2.75519e-16
6.81075e-09
-3.08702e-16
6.81075e-09
-2.46158e-16
6.81075e-09
-1.19946e-16
6.81075e-09
1.38873e-19
6.81075e-09
8.05023e-17
6.81075e-09
1.28068e-16
6.81075e-09
9.08211e-17
3.64342e-16
7.63427e-09
5.51677e-16
7.63427e-09
1.022e-16
7.63427e-09
-5.75498e-17
7.63427e-09
-4.30187e-17
7.63427e-09
-1.40804e-17
7.63427e-09
2.93705e-17
7.63427e-09
5.76711e-17
7.63427e-09
5.92405e-17
7.63427e-09
1.08383e-17
7.63427e-09
-8.56251e-17
7.63427e-09
-2.13114e-16
7.63427e-09
-3.38192e-16
7.63427e-09
-3.86731e-16
7.63427e-09
-3.14498e-16
7.63427e-09
-1.59171e-16
7.63427e-09
-8.35636e-18
7.63427e-09
9.48351e-17
7.63427e-09
1.57496e-16
7.63427e-09
1.16084e-16
4.40999e-16
8.39812e-09
6.53421e-16
8.39812e-09
1.35614e-16
8.39812e-09
-5.91525e-17
8.39812e-09
-4.73982e-17
8.39812e-09
-1.80198e-17
8.39812e-09
3.21843e-17
8.39812e-09
6.80095e-17
8.39812e-09
7.50857e-17
8.39812e-09
2.24423e-17
8.39812e-09
-9.07432e-17
8.39812e-09
-2.45877e-16
8.39812e-09
-4.02669e-16
8.39812e-09
-4.69359e-16
8.39812e-09
-3.88552e-16
8.39812e-09
-2.03154e-16
8.39812e-09
-1.95922e-17
8.39812e-09
1.08504e-16
8.39812e-09
1.87929e-16
8.39812e-09
1.43683e-16
5.17719e-16
9.11166e-09
7.55584e-16
9.11166e-09
1.73095e-16
9.11166e-09
-5.79982e-17
9.11166e-09
-5.05815e-17
9.11166e-09
-2.21424e-17
9.11166e-09
3.44493e-17
9.11166e-09
7.84496e-17
9.11166e-09
9.24514e-17
9.11166e-09
3.67938e-17
9.11166e-09
-9.30715e-17
9.11166e-09
-2.77333e-16
9.11166e-09
-4.68516e-16
9.11166e-09
-5.56064e-16
9.11166e-09
-4.67902e-16
9.11166e-09
-2.51696e-16
9.11166e-09
-3.35389e-17
9.11166e-09
1.21418e-16
9.11166e-09
2.19174e-16
9.11166e-09
1.73522e-16
5.93982e-16
9.78197e-09
8.57487e-16
9.78197e-09
2.14376e-16
9.78197e-09
-5.39999e-17
9.78197e-09
-5.2464e-17
9.78197e-09
-2.63542e-17
9.78197e-09
3.61962e-17
9.78197e-09
8.89495e-17
9.78197e-09
1.11233e-16
9.78197e-09
5.38095e-17
9.78197e-09
-9.26103e-17
9.78197e-09
-3.07326e-16
9.78197e-09
-5.35379e-16
9.78197e-09
-6.46401e-16
9.78197e-09
-5.52178e-16
9.78197e-09
-3.04611e-16
9.78197e-09
-5.01586e-17
9.78197e-09
1.33506e-16
9.78197e-09
2.51071e-16
9.78197e-09
2.05507e-16
6.69424e-16
1.04146e-08
9.58594e-16
1.04146e-08
2.59194e-16
1.04146e-08
-4.71119e-17
1.04146e-08
-5.29636e-17
1.04146e-08
-3.05661e-17
1.04146e-08
3.74661e-17
1.04146e-08
9.94781e-17
1.04146e-08
1.31326e-16
1.04146e-08
7.33895e-17
1.04146e-08
-8.93964e-17
1.04146e-08
-3.35755e-16
1.04146e-08
-6.02966e-16
1.04146e-08
-7.39975e-16
1.04146e-08
-6.41044e-16
1.04146e-08
-3.61722e-16
1.04146e-08
-6.94075e-17
1.04146e-08
1.44714e-16
1.04146e-08
2.83485e-16
1.04146e-08
2.39552e-16
7.43783e-16
1.1014e-08
1.05848e-15
1.1014e-08
3.07296e-16
1.1014e-08
-3.73151e-17
1.1014e-08
-5.20272e-17
1.1014e-08
-3.46937e-17
1.1014e-08
3.83041e-17
1.1014e-08
1.10018e-16
1.1014e-08
1.52637e-16
1.1014e-08
9.54317e-17
1.1014e-08
-8.34925e-17
1.1014e-08
-3.62561e-16
1.1014e-08
-6.71042e-16
1.1014e-08
-8.36453e-16
1.1014e-08
-7.34195e-16
1.1014e-08
-4.22855e-16
1.1014e-08
-9.12243e-17
1.1014e-08
1.55009e-16
1.1014e-08
3.16313e-16
1.1014e-08
2.75574e-16
8.16874e-16
1.87778e-08
1.21475e-15
1.87778e-08
3.90407e-16
1.87778e-08
-1.55416e-17
1.87778e-08
-4.75085e-17
1.87778e-08
-4.08981e-17
1.87778e-08
3.88275e-17
1.87778e-08
1.26846e-16
1.87778e-08
1.88974e-16
1.87778e-08
1.35495e-16
1.87778e-08
-6.86545e-17
1.87778e-08
-4.01893e-16
1.87778e-08
-7.80323e-16
1.87778e-08
-9.9591e-16
1.87778e-08
-8.91279e-16
1.87778e-08
-5.28555e-16
1.87778e-08
-1.31311e-16
1.87778e-08
1.69418e-16
1.87778e-08
3.69408e-16
1.87778e-08
3.37024e-16
9.30798e-16
2.14527e-08
1.37551e-15
2.14527e-08
4.86167e-16
2.14527e-08
1.56028e-17
2.14527e-08
-3.8382e-17
2.14527e-08
-4.66848e-17
2.14527e-08
3.85572e-17
2.14527e-08
1.44646e-16
2.14527e-08
2.30273e-16
2.14527e-08
1.84048e-16
2.14527e-08
-4.59656e-17
2.14527e-08
-4.38893e-16
2.14527e-08
-8.96379e-16
2.14527e-08
-1.17133e-15
2.14527e-08
-1.06829e-15
2.14527e-08
-6.51116e-16
2.14527e-08
-1.80867e-16
2.14527e-08
1.81836e-16
2.14527e-08
4.26279e-16
2.14527e-08
4.07251e-16
1.04782e-15
2.43737e-08
1.53949e-15
2.43737e-08
5.94994e-16
2.43737e-08
5.74237e-17
2.43737e-08
-2.3648e-17
2.43737e-08
-5.15602e-17
2.43737e-08
3.76278e-17
2.43737e-08
1.6338e-16
2.43737e-08
2.76641e-16
2.43737e-08
2.41631e-16
2.43737e-08
-1.45518e-17
2.43737e-08
-4.72657e-16
2.43737e-08
-1.01864e-15
2.43737e-08
-1.36295e-15
2.43737e-08
-1.26639e-15
2.43737e-08
-7.92177e-16
2.43737e-08
-2.41277e-16
2.43737e-08
1.91485e-16
2.43737e-08
4.8668e-16
2.43737e-08
4.86938e-16
1.16763e-15
2.75625e-08
1.70542e-15
2.75625e-08
7.17044e-16
2.75625e-08
1.11221e-16
2.75625e-08
-2.24232e-18
2.75625e-08
-5.49062e-17
2.75625e-08
3.6246e-17
2.75625e-08
1.83022e-16
2.75625e-08
3.28113e-16
2.75625e-08
3.08676e-16
2.75625e-08
2.64294e-17
2.75625e-08
-5.02198e-16
2.75625e-08
-1.14636e-15
2.75625e-08
-1.5708e-15
2.75625e-08
-1.48665e-15
2.75625e-08
-9.53435e-16
2.75625e-08
-3.14059e-16
2.75625e-08
1.97436e-16
2.75625e-08
5.50273e-16
2.75625e-08
5.76729e-16
1.29012e-15
3.10425e-08
1.872e-15
3.10425e-08
8.52224e-16
3.10425e-08
1.78218e-16
3.10425e-08
2.69774e-17
3.10425e-08
-5.59781e-17
3.10425e-08
3.4704e-17
3.10425e-08
2.03555e-16
3.10425e-08
3.84632e-16
3.10425e-08
3.85476e-16
3.10425e-08
7.77618e-17
3.10425e-08
-5.26443e-16
3.10425e-08
-1.2786e-15
3.10425e-08
-1.79464e-15
3.10425e-08
-1.72997e-15
3.10425e-08
-1.13662e-15
3.10425e-08
-4.00907e-16
3.10425e-08
1.98573e-16
3.10425e-08
6.16578e-16
3.10425e-08
6.77193e-16
1.41534e-15
3.48387e-08
2.03801e-15
3.48387e-08
1.00019e-15
3.48387e-08
2.59514e-16
3.48387e-08
6.52206e-17
3.48387e-08
-5.38991e-17
3.48387e-08
3.33871e-17
3.48387e-08
2.24974e-16
3.48387e-08
4.46028e-16
3.48387e-08
4.72139e-16
3.48387e-08
1.4014e-16
3.48387e-08
-5.44218e-16
3.48387e-08
-1.41416e-15
3.48387e-08
-2.03388e-15
3.48387e-08
-1.99702e-15
3.48387e-08
-1.34346e-15
3.48387e-08
-5.03702e-16
3.48387e-08
1.93557e-16
3.48387e-08
6.84935e-16
3.48387e-08
7.88791e-16
1.54352e-15
3.89777e-08
2.20234e-15
3.89777e-08
1.16037e-15
3.89777e-08
3.56043e-16
3.89777e-08
1.13734e-16
3.89777e-08
-4.76651e-17
3.89777e-08
3.27906e-17
3.89777e-08
2.47298e-16
3.89777e-08
5.12015e-16
3.89777e-08
5.68564e-16
3.89777e-08
2.14142e-16
3.89777e-08
-5.54271e-16
3.89777e-08
-1.55153e-15
3.89777e-08
-2.28754e-15
3.89777e-08
-2.28817e-15
3.89777e-08
-1.57565e-15
3.89777e-08
-6.24531e-16
3.89777e-08
1.80797e-16
3.89777e-08
7.54471e-16
3.89777e-08
9.1183e-16
1.67504e-15
4.34881e-08
2.36404e-15
4.34881e-08
1.33191e-15
4.34881e-08
4.68522e-16
4.34881e-08
1.73762e-16
4.34881e-08
-3.6141e-17
4.34881e-08
3.35379e-17
4.34881e-08
2.70565e-16
4.34881e-08
5.8218e-16
4.34881e-08
6.74407e-16
4.34881e-08
3.00189e-16
4.34881e-08
-5.55281e-16
4.34881e-08
-1.68892e-15
4.34881e-08
-2.55414e-15
4.34881e-08
-2.60338e-15
4.34881e-08
-1.83476e-15
4.34881e-08
-7.6569e-16
4.34881e-08
1.58429e-16
4.34881e-08
8.24073e-16
4.34881e-08
1.04635e-15
1.81043e-15
4.84009e-08
2.52245e-15
4.84009e-08
1.51374e-15
4.84009e-08
5.97405e-16
4.84009e-08
2.46499e-16
4.84009e-08
-1.80683e-17
4.84009e-08
3.63906e-17
4.84009e-08
2.94843e-16
4.84009e-08
6.55985e-16
4.84009e-08
7.89054e-16
4.84009e-08
3.98513e-16
4.84009e-08
-5.45899e-16
4.84009e-08
-1.82424e-15
4.84009e-08
-2.83169e-15
4.84009e-08
-2.94211e-15
4.84009e-08
-2.1222e-15
4.84009e-08
-9.29672e-16
4.84009e-08
1.24296e-16
4.84009e-08
8.92353e-16
4.84009e-08
1.19206e-15
1.95037e-15
5.37491e-08
2.67722e-15
5.37491e-08
1.70463e-15
5.37491e-08
7.42841e-16
5.37491e-08
3.33044e-16
5.37491e-08
7.90937e-18
5.37491e-08
4.22447e-17
5.37491e-08
3.20244e-16
5.37491e-08
7.32772e-16
5.37491e-08
9.11597e-16
5.37491e-08
5.09115e-16
5.37491e-08
-5.24784e-16
5.37491e-08
-1.9551e-15
5.37491e-08
-3.11762e-15
5.37491e-08
-3.30324e-15
5.37491e-08
-2.43906e-15
5.37491e-08
-1.11914e-15
5.37491e-08
7.59183e-17
5.37491e-08
9.57604e-16
5.37491e-08
1.34828e-15
2.09561e-15
5.95681e-08
2.82837e-15
5.95681e-08
1.9032e-15
5.95681e-08
9.04656e-16
5.95681e-08
4.34357e-16
5.95681e-08
4.32171e-17
5.95681e-08
5.21215e-17
5.95681e-08
3.4695e-16
5.95681e-08
8.1178e-16
5.95681e-08
1.04081e-15
5.95681e-08
6.31709e-16
5.95681e-08
-4.90657e-16
5.95681e-08
-2.07882e-15
5.95681e-08
-3.40872e-15
5.95681e-08
-3.68492e-15
5.95681e-08
-2.78606e-15
5.95681e-08
-1.33688e-15
5.95681e-08
1.04641e-17
5.95681e-08
1.01774e-15
5.95681e-08
1.51384e-15
2.24691e-15
6.58962e-08
2.9763e-15
6.58962e-08
2.10804e-15
6.58962e-08
1.08233e-15
6.58962e-08
5.51211e-16
6.58962e-08
8.93063e-17
6.58962e-08
6.71604e-17
6.58962e-08
3.75229e-16
6.58962e-08
8.92161e-16
6.58962e-08
1.17513e-15
6.58962e-08
7.65639e-16
6.58962e-08
-4.42329e-16
6.58962e-08
-2.19243e-15
6.58962e-08
-3.70117e-15
6.58962e-08
-4.0845e-15
6.58962e-08
-3.16334e-15
6.58962e-08
-1.58568e-15
6.58962e-08
-7.52708e-17
6.58962e-08
1.07022e-15
6.58962e-08
1.68707e-15
2.405e-15
7.27745e-08
3.12183e-15
7.27745e-08
2.31778e-15
7.27745e-08
1.27502e-15
7.27745e-08
6.84151e-16
7.27745e-08
1.47611e-16
7.27745e-08
8.8605e-17
7.27745e-08
4.05442e-16
7.27745e-08
9.73e-16
7.27745e-08
1.31271e-15
7.27745e-08
9.09807e-16
7.27745e-08
-3.78778e-16
7.27745e-08
-2.29269e-15
7.27745e-08
-3.99053e-15
7.27745e-08
-4.4985e-15
7.27745e-08
-3.57042e-15
7.27745e-08
-1.86821e-15
7.27745e-08
-1.84876e-16
7.27745e-08
1.11202e-15
7.27745e-08
1.86568e-15
2.57042e-15
8.02471e-08
3.26614e-15
8.02471e-08
2.53112e-15
8.02471e-08
1.48156e-15
8.02471e-08
8.33455e-16
8.02471e-08
2.19504e-16
8.02471e-08
1.17773e-16
8.02471e-08
4.38047e-16
8.02471e-08
1.05335e-15
8.02471e-08
1.4514e-15
8.02471e-08
1.06264e-15
8.02471e-08
-2.99245e-16
8.02471e-08
-2.37613e-15
8.02471e-08
-4.27175e-15
8.02471e-08
-4.92247e-15
8.02471e-08
-4.00593e-15
8.02471e-08
-2.18685e-15
8.02471e-08
-3.22289e-16
8.02471e-08
1.13957e-15
8.02471e-08
2.04677e-15
2.74342e-15
8.83616e-08
3.41072e-15
8.83616e-08
2.74699e-15
8.83616e-08
1.70055e-15
8.83616e-08
9.99107e-16
8.83616e-08
3.06248e-16
8.83616e-08
1.56024e-16
8.83616e-08
4.73595e-16
8.83616e-08
1.13227e-15
8.83616e-08
1.58882e-15
8.83616e-08
1.22203e-15
8.83616e-08
-2.03351e-16
8.83616e-08
-2.43927e-15
8.83616e-08
-4.53923e-15
8.83616e-08
-5.35093e-15
8.83616e-08
-4.46749e-15
8.83616e-08
-2.54353e-15
8.83616e-08
-4.91728e-16
8.83616e-08
1.14877e-15
8.83616e-08
2.22667e-15
2.92382e-15
9.71691e-08
3.55724e-15
9.71691e-08
2.96453e-15
9.71691e-08
1.93041e-15
9.71691e-08
1.18077e-15
9.71691e-08
4.08936e-16
9.71691e-08
2.04721e-16
9.71691e-08
5.12733e-16
9.71691e-08
1.20888e-15
9.71691e-08
1.72244e-15
9.71691e-08
1.38538e-15
9.71691e-08
-9.12335e-17
9.71691e-08
-2.4787e-15
9.71691e-08
-4.78692e-15
9.71691e-08
-5.77733e-15
9.71691e-08
-4.95149e-15
9.71691e-08
-2.93948e-15
9.71691e-08
-6.97604e-16
9.71691e-08
1.135e-15
9.71691e-08
2.40095e-15
3.11083e-15
1.06724e-07
3.70737e-15
1.06724e-07
3.1832e-15
1.06724e-07
2.16953e-15
1.06724e-07
1.37777e-15
1.06724e-07
5.28423e-16
1.06724e-07
2.65192e-16
1.06724e-07
5.56196e-16
1.06724e-07
1.28239e-15
1.06724e-07
1.8497e-15
1.06724e-07
1.54951e-15
1.06724e-07
3.63249e-17
1.06724e-07
-2.49127e-15
1.06724e-07
-5.00843e-15
1.06724e-07
-6.19411e-15
1.06724e-07
-5.4529e-15
1.06724e-07
-3.37492e-15
1.06724e-07
-9.44408e-16
1.06724e-07
1.09319e-15
1.06724e-07
2.56446e-15
3.30284e-15
1.17087e-07
3.86254e-15
1.17087e-07
3.40273e-15
1.17087e-07
2.41632e-15
1.17087e-07
1.58918e-15
1.17087e-07
6.65258e-16
1.17087e-07
3.38673e-16
1.17087e-07
6.04797e-16
1.17087e-07
1.35214e-15
1.17087e-07
1.96803e-15
1.17087e-07
1.71087e-15
1.17087e-07
1.7784e-16
1.17087e-07
-2.47428e-15
1.17087e-07
-5.19724e-15
1.17087e-07
-6.59281e-15
1.17087e-07
-5.96508e-15
1.17087e-07
-3.84876e-15
1.17087e-07
-1.23651e-15
1.17087e-07
1.0178e-15
1.17087e-07
2.71125e-15
3.49733e-15
1.2832e-07
4.0237e-15
1.2832e-07
3.62303e-15
1.2832e-07
2.66939e-15
1.2832e-07
1.81381e-15
1.2832e-07
8.19648e-16
1.2832e-07
4.26269e-16
1.2832e-07
6.59398e-16
1.2832e-07
1.41767e-15
1.2832e-07
2.07496e-15
1.2832e-07
1.86557e-15
1.2832e-07
3.31044e-16
1.2832e-07
-2.42578e-15
1.2832e-07
-5.34693e-15
1.2832e-07
-6.96416e-15
1.2832e-07
-6.47976e-15
1.2832e-07
-4.35823e-15
1.2832e-07
-1.57769e-15
1.2832e-07
9.02843e-16
1.2832e-07
2.83451e-15
3.69079e-15
1.40492e-07
4.19104e-15
1.40492e-07
3.84413e-15
1.40492e-07
2.92752e-15
1.40492e-07
2.05038e-15
1.40492e-07
9.91453e-16
1.40492e-07
5.28893e-16
1.40492e-07
7.20861e-16
1.40492e-07
1.47867e-15
1.40492e-07
2.16828e-15
1.40492e-07
2.00958e-15
1.40492e-07
4.92765e-16
1.40492e-07
-2.34472e-15
1.40492e-07
-5.4514e-15
1.40492e-07
-7.29834e-15
1.40492e-07
-6.98703e-15
1.40492e-07
-4.89864e-15
1.40492e-07
-1.97065e-15
1.40492e-07
7.42009e-16
1.40492e-07
2.92662e-15
3.87865e-15
1.53677e-07
4.36361e-15
1.53677e-07
4.06598e-15
1.53677e-07
3.18974e-15
1.53677e-07
2.29755e-15
1.53677e-07
1.1802e-15
1.53677e-07
6.47202e-16
1.53677e-07
7.89999e-16
1.53677e-07
1.53508e-15
1.53677e-07
2.24614e-15
1.53677e-07
2.13893e-15
1.53677e-07
6.58856e-16
1.53677e-07
-2.23117e-15
1.53677e-07
-5.50503e-15
1.53677e-07
-7.58541e-15
1.53677e-07
-7.47556e-15
1.53677e-07
-5.46289e-15
1.53677e-07
-2.41652e-15
1.53677e-07
5.28863e-16
1.53677e-07
2.97927e-15
4.05521e-15
1.67954e-07
4.53897e-15
1.67954e-07
4.28825e-15
1.67954e-07
3.45527e-15
1.67954e-07
2.55401e-15
1.67954e-07
1.38513e-15
1.67954e-07
7.81525e-16
1.67954e-07
8.67555e-16
1.67954e-07
1.58703e-15
1.67954e-07
2.30713e-15
1.67954e-07
2.24986e-15
1.67954e-07
8.24387e-16
1.67954e-07
-2.08639e-15
1.67954e-07
-5.50301e-15
1.67954e-07
-7.81557e-15
1.67954e-07
-7.93296e-15
1.67954e-07
-6.04133e-15
1.67954e-07
-2.91422e-15
1.67954e-07
2.57076e-16
1.67954e-07
2.98377e-15
4.21358e-15
1.83407e-07
4.71275e-15
1.83407e-07
4.51008e-15
1.83407e-07
3.72343e-15
1.83407e-07
2.81852e-15
1.83407e-07
1.60522e-15
1.83407e-07
9.31824e-16
1.83407e-07
9.54108e-16
1.83407e-07
1.63498e-15
1.83407e-07
2.35045e-15
1.83407e-07
2.33893e-15
1.83407e-07
9.83853e-16
1.83407e-07
-1.91301e-15
1.83407e-07
-5.44158e-15
1.83407e-07
-7.97955e-15
1.83407e-07
-8.34621e-15
1.83407e-07
-6.62174e-15
1.83407e-07
-3.46004e-15
1.83407e-07
-7.91179e-17
1.83407e-07
2.93136e-15
4.34583e-15
2.00129e-07
4.87841e-15
2.00129e-07
4.72975e-15
2.00129e-07
3.99344e-15
2.00129e-07
3.08993e-15
2.00129e-07
1.83928e-15
2.00129e-07
1.0977e-15
2.00129e-07
1.05006e-15
2.00129e-07
1.67966e-15
2.00129e-07
2.37594e-15
2.00129e-07
2.40328e-15
2.00129e-07
1.1315e-15
2.00129e-07
-1.71542e-15
2.00129e-07
-5.3184e-15
2.00129e-07
-8.06878e-15
2.00129e-07
-8.70206e-15
2.00129e-07
-7.18955e-15
2.00129e-07
-4.0472e-15
2.00129e-07
-4.84209e-16
2.00129e-07
2.81356e-15
4.44318e-15
2.18218e-07
5.02818e-15
2.18218e-07
4.94417e-15
2.18218e-07
4.26411e-15
2.18218e-07
3.36711e-15
2.18218e-07
2.086e-15
2.18218e-07
1.27846e-15
2.18218e-07
1.15561e-15
2.18218e-07
1.72198e-15
2.18218e-07
2.38414e-15
2.18218e-07
2.44085e-15
2.18218e-07
1.26167e-15
2.18218e-07
-1.49986e-15
2.18218e-07
-5.13305e-15
2.18218e-07
-8.07561e-15
2.18218e-07
-8.98751e-15
2.18218e-07
-7.72807e-15
2.18218e-07
-4.66546e-15
2.18218e-07
-9.59993e-16
2.18218e-07
2.62175e-15
4.49561e-15
2.37778e-07
5.1531e-15
2.37778e-07
5.14843e-15
2.37778e-07
4.53351e-15
2.37778e-07
3.64882e-15
2.37778e-07
2.34405e-15
2.37778e-07
1.47326e-15
2.37778e-07
1.27074e-15
2.37778e-07
1.76287e-15
2.37778e-07
2.37625e-15
2.37778e-07
2.45057e-15
2.37778e-07
1.36902e-15
2.37778e-07
-1.27408e-15
2.37778e-07
-4.88738e-15
2.37778e-07
-7.99427e-15
2.37778e-07
-9.19034e-15
2.37778e-07
-8.21879e-15
2.37778e-07
-5.30086e-15
2.37778e-07
-1.50461e-15
2.37778e-07
2.34771e-15
4.49207e-15
2.58926e-07
5.2433e-15
2.58926e-07
5.33552e-15
2.58926e-07
4.79857e-15
2.58926e-07
3.9335e-15
2.58926e-07
2.61205e-15
2.58926e-07
1.68105e-15
2.58926e-07
1.39518e-15
2.58926e-07
1.80338e-15
2.58926e-07
2.35402e-15
2.58926e-07
2.43248e-15
2.58926e-07
1.44903e-15
2.58926e-07
-1.04681e-15
2.58926e-07
-4.58656e-15
2.58926e-07
-7.82095e-15
2.58926e-07
-9.29878e-15
2.58926e-07
-8.64305e-15
2.58926e-07
-5.93565e-15
2.58926e-07
-2.11162e-15
2.58926e-07
1.98424e-15
4.42116e-15
2.81781e-07
5.28783e-15
2.81781e-07
5.49674e-15
2.81781e-07
5.05459e-15
2.81781e-07
4.21892e-15
2.81781e-07
2.88846e-15
2.81781e-07
1.90058e-15
2.81781e-07
1.52849e-15
2.81781e-07
1.84457e-15
2.81781e-07
2.31989e-15
2.81781e-07
2.38764e-15
2.81781e-07
1.49812e-15
2.81781e-07
-8.26817e-16
2.81781e-07
-4.23938e-15
2.81781e-07
-7.55391e-15
2.81781e-07
-9.30186e-15
2.81781e-07
-8.98364e-15
2.81781e-07
-6.54862e-15
2.81781e-07
-2.76953e-15
2.81781e-07
1.52684e-15
4.27117e-15
3.06476e-07
5.27417e-15
3.06476e-07
5.62242e-15
3.06476e-07
5.29498e-15
3.06476e-07
4.50178e-15
3.06476e-07
3.17126e-15
3.06476e-07
2.13043e-15
3.06476e-07
1.6702e-15
3.06476e-07
1.8875e-15
3.06476e-07
2.27678e-15
3.06476e-07
2.31822e-15
3.06476e-07
1.51402e-15
3.06476e-07
-6.22239e-16
3.06476e-07
-3.85747e-15
3.06476e-07
-7.19413e-15
3.06476e-07
-9.19134e-15
3.06476e-07
-9.22566e-15
3.06476e-07
-7.11554e-15
3.06476e-07
-3.46155e-15
3.06476e-07
9.75828e-16
4.0304e-15
3.33153e-07
5.18923e-15
3.33153e-07
5.70211e-15
3.33153e-07
5.51076e-15
3.33153e-07
4.77727e-15
3.33153e-07
3.45784e-15
3.33153e-07
2.36894e-15
3.33153e-07
1.81972e-15
3.33153e-07
1.93314e-15
3.33153e-07
2.22785e-15
3.33153e-07
2.22748e-15
3.33153e-07
1.49623e-15
3.33153e-07
-4.40419e-16
3.33153e-07
-3.45427e-15
3.33153e-07
-6.74708e-15
3.33153e-07
-8.96193e-15
3.33153e-07
-9.35557e-15
3.33153e-07
-7.6116e-15
3.33153e-07
-4.16534e-15
3.33153e-07
3.37638e-16
3.68808e-15
3.61961e-07
5.01952e-15
3.61961e-07
5.724e-15
3.61961e-07
5.69135e-15
3.61961e-07
5.03871e-15
3.61961e-07
3.74466e-15
3.61961e-07
2.61412e-15
3.61961e-07
1.97616e-15
3.61961e-07
1.98237e-15
3.61961e-07
2.17621e-15
3.61961e-07
2.11972e-15
3.61961e-07
1.44625e-15
3.61961e-07
-2.87331e-16
3.61961e-07
-3.04421e-15
3.61961e-07
-6.22433e-15
3.61961e-07
-8.61055e-15
3.61961e-07
-9.36057e-15
3.61961e-07
-8.01409e-15
3.61961e-07
-4.8541e-15
3.61961e-07
-3.74893e-16
3.23708e-15
3.93066e-07
4.75147e-15
3.93066e-07
5.67482e-15
3.93066e-07
5.82594e-15
3.93066e-07
5.27711e-15
3.93066e-07
4.02681e-15
3.93066e-07
2.86339e-15
3.93066e-07
2.13848e-15
3.93066e-07
2.03576e-15
3.93066e-07
2.12477e-15
3.93066e-07
2e-15
3.93066e-07
1.36749e-15
3.93066e-07
-1.66913e-16
3.93066e-07
-2.64141e-15
3.93066e-07
-5.64224e-15
3.93066e-07
-8.13787e-15
3.93066e-07
-9.23077e-15
3.93066e-07
-8.30351e-15
3.93066e-07
-5.49737e-15
3.93066e-07
-1.14203e-15
2.67617e-15
4.26642e-07
4.37318e-15
4.26642e-07
5.54126e-15
4.26642e-07
5.90333e-15
4.26642e-07
5.48103e-15
4.26642e-07
4.29744e-15
4.26642e-07
3.11344e-15
4.26642e-07
2.30547e-15
4.26642e-07
2.0934e-15
4.26642e-07
2.07594e-15
4.26642e-07
1.87366e-15
4.26642e-07
1.26533e-15
4.26642e-07
-8.06146e-17
4.26642e-07
-2.25827e-15
4.26642e-07
-5.02132e-15
4.26642e-07
-7.55051e-15
4.26642e-07
-8.95877e-15
4.26642e-07
-8.46381e-15
4.26642e-07
-6.0641e-15
4.26642e-07
-1.9371e-15
2.01109e-15
4.62878e-07
3.87818e-15
4.62878e-07
5.30945e-15
4.62878e-07
5.90975e-15
4.62878e-07
5.63873e-15
4.62878e-07
4.54771e-15
4.62878e-07
3.35971e-15
4.62878e-07
2.47539e-15
4.62878e-07
2.15506e-15
4.62878e-07
2.03157e-15
4.62878e-07
1.74592e-15
4.62878e-07
1.14661e-15
4.62878e-07
-2.73664e-17
4.62878e-07
-1.90491e-15
4.62878e-07
-4.38343e-15
4.62878e-07
-6.86436e-15
4.62878e-07
-8.54038e-15
4.62878e-07
-8.48002e-15
4.62878e-07
-6.52686e-15
4.62878e-07
-2.72699e-15
1.25628e-15
5.01975e-07
3.26695e-15
5.01975e-07
4.96646e-15
5.01975e-07
5.83066e-15
5.01975e-07
5.73878e-15
5.01975e-07
4.76619e-15
5.01975e-07
3.59558e-15
5.01975e-07
2.64555e-15
5.01975e-07
2.22054e-15
5.01975e-07
1.9932e-15
5.01975e-07
1.62169e-15
5.01975e-07
1.01873e-15
5.01975e-07
-3.63019e-18
5.01975e-07
-1.58855e-15
5.01975e-07
-3.74983e-15
5.01975e-07
-6.10182e-15
5.01975e-07
-7.97909e-15
5.01975e-07
-8.34262e-15
5.01975e-07
-6.86043e-15
5.01975e-07
-3.47357e-15
4.35267e-16
5.44151e-07
2.54859e-15
5.44151e-07
4.50335e-15
5.44151e-07
5.65236e-15
5.44151e-07
5.76935e-15
5.44151e-07
4.93944e-15
5.44151e-07
3.81224e-15
5.44151e-07
2.81206e-15
5.44151e-07
2.28899e-15
5.44151e-07
1.96169e-15
5.44151e-07
1.50525e-15
5.44151e-07
8.89187e-16
5.44151e-07
-3.62191e-18
5.44151e-07
-1.31296e-15
5.44151e-07
-3.13947e-15
5.44151e-07
-5.29008e-15
5.44151e-07
-7.28604e-15
5.44151e-07
-8.04707e-15
5.44151e-07
-7.04454e-15
5.44151e-07
-4.13849e-15
-4.20158e-16
5.89641e-07
1.74267e-15
5.89641e-07
3.91865e-15
5.89641e-07
5.36171e-15
5.89641e-07
5.71716e-15
5.89641e-07
5.0544e-15
5.89641e-07
3.99871e-15
5.89641e-07
2.96957e-15
5.89641e-07
2.35845e-15
5.89641e-07
1.93685e-15
5.89641e-07
1.39979e-15
5.89641e-07
7.65182e-16
5.89641e-07
-1.98138e-17
5.89641e-07
-1.07826e-15
5.89641e-07
-2.56733e-15
5.89641e-07
-4.45911e-15
5.89641e-07
-6.48214e-15
5.89641e-07
-7.5917e-15
5.89641e-07
-7.06447e-15
5.89641e-07
-4.6893e-15
-1.27094e-15
6.38693e-07
8.79963e-16
6.38693e-07
3.21852e-15
6.38693e-07
4.94839e-15
6.38693e-07
5.56992e-15
6.38693e-07
5.09917e-15
6.38693e-07
4.14196e-15
6.38693e-07
3.11072e-15
6.38693e-07
2.42581e-15
6.38693e-07
1.91736e-15
6.38693e-07
1.30717e-15
6.38693e-07
6.5301e-16
6.38693e-07
-4.36872e-17
6.38693e-07
-8.811e-16
6.38693e-07
-2.04419e-15
6.38693e-07
-3.63831e-15
6.38693e-07
-5.59646e-15
6.38693e-07
-6.98329e-15
6.38693e-07
-6.91338e-15
6.38693e-07
-5.09875e-15
-2.07274e-15
6.9158e-07
4.15944e-19
6.9158e-07
2.41999e-15
6.9158e-07
4.40971e-15
6.9158e-07
5.31483e-15
6.9158e-07
5.06146e-15
6.9158e-07
4.22979e-15
6.9158e-07
3.22614e-15
6.9158e-07
2.48633e-15
6.9158e-07
1.90067e-15
6.9158e-07
1.22771e-15
6.9158e-07
5.5748e-16
6.9158e-07
-6.66771e-17
6.9158e-07
-7.15215e-16
6.9158e-07
-1.57596e-15
6.9158e-07
-2.85384e-15
6.9158e-07
-4.66425e-15
6.9158e-07
-6.23703e-15
6.9158e-07
-6.59504e-15
6.9158e-07
-5.34726e-15
-2.77918e-15
7.48589e-07
-8.49591e-16
7.48589e-07
1.55211e-15
7.48589e-07
3.75235e-15
7.48589e-07
4.94208e-15
7.48589e-07
4.93029e-15
7.48589e-07
4.25048e-15
7.48589e-07
3.30432e-15
7.48589e-07
2.53317e-15
7.48589e-07
1.88292e-15
7.48589e-07
1.16011e-15
7.48589e-07
4.8143e-16
7.48589e-07
-8.12323e-17
7.48589e-07
-5.72312e-16
7.48589e-07
-1.16348e-15
7.48589e-07
-2.12601e-15
7.48589e-07
-3.72332e-15
7.48589e-07
-5.38187e-15
7.48589e-07
-6.11623e-15
7.48589e-07
-5.4212e-15
-3.35394e-15
8.10031e-07
-1.62058e-15
8.10031e-07
6.55613e-16
8.10031e-07
2.99302e-15
8.10031e-07
4.44913e-15
8.10031e-07
4.69666e-15
8.10031e-07
4.1927e-15
8.10031e-07
3.33325e-15
8.10031e-07
2.55737e-15
8.10031e-07
1.85884e-15
8.10031e-07
1.10158e-15
8.10031e-07
4.25381e-16
8.10031e-07
-8.18552e-17
8.10031e-07
-4.43235e-16
8.10031e-07
-8.0295e-16
8.10031e-07
-1.46777e-15
8.10031e-07
-2.81054e-15
8.10031e-07
-4.45539e-15
8.10031e-07
-5.49127e-15
8.10031e-07
-5.31986e-15
-3.77002e-15
8.76242e-07
-2.26492e-15
8.76242e-07
-2.19793e-16
8.76242e-07
2.16106e-15
8.76242e-07
3.84277e-15
8.76242e-07
4.35418e-15
8.76242e-07
4.04713e-15
8.76242e-07
3.30212e-15
8.76242e-07
2.54815e-15
8.76242e-07
1.82161e-15
8.76242e-07
1.04785e-15
8.76242e-07
3.87258e-16
8.76242e-07
-6.58116e-17
8.76242e-07
-3.19254e-16
8.76242e-07
-4.87021e-16
8.76242e-07
-8.8523e-16
8.76242e-07
-1.95704e-15
8.76242e-07
-3.50197e-15
8.76242e-07
-4.74464e-15
8.76242e-07
-5.05554e-15
-4.01082e-15
9.47578e-07
-2.74808e-15
9.47578e-07
-1.02094e-15
9.47578e-07
1.29814e-15
9.47578e-07
3.1404e-15
9.47578e-07
3.90308e-15
9.47578e-07
3.80734e-15
9.47578e-07
3.20102e-15
9.47578e-07
2.49461e-15
9.47578e-07
1.76315e-15
9.47578e-07
9.93129e-16
9.47578e-07
3.62353e-16
9.47578e-07
-3.34106e-17
9.47578e-07
-1.9353e-16
9.47578e-07
-2.06249e-16
9.47578e-07
-3.77942e-16
9.47578e-07
-1.18494e-15
9.47578e-07
-2.56696e-15
9.47578e-07
-3.91498e-15
9.47578e-07
-4.64682e-15
-4.06929e-15
1.02443e-06
-3.04863e-15
1.02443e-06
-1.69806e-15
1.02443e-06
4.54618e-16
1.02443e-06
2.3723e-15
1.02443e-06
3.35323e-15
1.02443e-06
3.4709e-15
1.02443e-06
3.02189e-15
1.02443e-06
2.38686e-15
1.02443e-06
1.67485e-15
1.02443e-06
9.30254e-16
1.02443e-06
3.44032e-16
1.02443e-06
1.1998e-17
1.02443e-06
-6.27777e-17
1.02443e-06
4.90826e-17
1.02443e-06
6.01123e-17
1.02443e-06
-5.06376e-16
1.02443e-06
-1.6914e-15
1.02443e-06
-3.04811e-15
1.02443e-06
-4.11936e-15
-3.95533e-15
1.1072e-06
-3.16117e-15
1.1072e-06
-2.20976e-15
1.1072e-06
-3.14491e-16
1.1072e-06
1.58161e-15
1.1072e-06
2.72467e-15
1.1072e-06
3.04236e-15
1.1072e-06
2.76005e-15
1.1072e-06
2.2168e-15
1.1072e-06
1.54852e-15
1.1072e-06
8.51018e-16
1.1072e-06
3.23966e-16
1.1072e-06
6.39878e-17
1.1072e-06
7.24729e-17
1.1072e-06
2.87144e-16
1.1072e-06
4.38722e-16
1.1072e-06
7.53395e-17
1.1072e-06
-9.06619e-16
1.1072e-06
-2.19379e-15
1.1072e-06
-3.50737e-15
-3.6934e-15
1.19635e-06
-3.09137e-15
1.19635e-06
-2.53318e-15
1.19635e-06
-9.58714e-16
1.19635e-06
8.19996e-16
1.19635e-06
2.04937e-15
1.19635e-06
2.53564e-15
1.19635e-06
2.41654e-15
1.19635e-06
1.97951e-15
1.19635e-06
1.37705e-15
1.19635e-06
7.46549e-16
1.19635e-06
2.9283e-16
1.19635e-06
1.13449e-16
1.19635e-06
2.08005e-16
1.19635e-06
5.12954e-16
1.19635e-06
7.69198e-16
1.19635e-06
5.64803e-16
1.19635e-06
-2.31673e-16
1.19635e-06
-1.39766e-15
1.19635e-06
-2.85865e-15
-3.31458e-15
1.29234e-06
-2.8629e-15
1.29234e-06
-2.66386e-15
1.29234e-06
-1.43844e-15
1.29234e-06
1.42071e-16
1.29234e-06
1.37085e-15
1.29234e-06
1.9751e-15
1.29234e-06
2.0004e-15
1.29234e-06
1.67495e-15
1.29234e-06
1.15548e-15
1.29234e-06
6.08654e-16
1.29234e-06
2.41552e-16
1.29234e-06
1.49181e-16
1.29234e-06
3.35344e-16
1.29234e-06
7.27279e-16
1.29234e-06
1.06196e-15
1.29234e-06
9.72476e-16
1.29234e-06
3.27906e-16
1.29234e-06
-6.96165e-16
1.29234e-06
-2.22621e-15
-2.85555e-15
1.39569e-06
-2.51094e-15
1.39569e-06
-2.61346e-15
1.39569e-06
-1.731e-15
1.39569e-06
-4.01902e-16
1.39569e-06
7.41174e-16
1.39569e-06
1.39519e-15
1.39569e-06
1.53033e-15
1.39569e-06
1.30972e-15
1.39569e-06
8.82663e-16
1.39569e-06
4.30831e-16
1.39569e-06
1.59836e-16
1.39569e-06
1.59069e-16
1.39569e-06
4.44423e-16
1.39569e-06
9.26492e-16
1.39569e-06
1.3243e-15
1.39569e-06
1.31175e-15
1.39569e-06
7.78289e-16
1.39569e-06
-1.11899e-16
1.39569e-06
-1.6607e-15
-2.36407e-15
1.50695e-06
-2.07778e-15
1.50695e-06
-2.41291e-15
1.50695e-06
-1.83479e-15
1.50695e-06
-7.74128e-16
1.50695e-06
2.13109e-16
1.50695e-06
8.40767e-16
1.50695e-06
1.03527e-15
1.50695e-06
8.98635e-16
1.50695e-06
5.6286e-16
1.50695e-06
2.09856e-16
1.50695e-06
3.72435e-17
1.50695e-06
1.31521e-16
1.50695e-06
5.24379e-16
1.50695e-06
1.10288e-15
1.50695e-06
1.55871e-15
1.50695e-06
1.59572e-15
1.50695e-06
1.13348e-15
1.50695e-06
3.48819e-16
1.50695e-06
-1.20092e-15
-1.89265e-15
1.62671e-06
-1.61701e-15
1.62671e-06
-2.10065e-15
1.62671e-06
-1.76665e-15
1.62671e-06
-9.61549e-16
1.62671e-06
-1.69448e-16
1.62671e-06
3.62777e-16
1.62671e-06
5.53841e-16
1.62671e-06
4.65553e-16
1.62671e-06
2.06967e-16
1.62671e-06
-5.27245e-17
1.62671e-06
-1.31932e-16
1.62671e-06
5.71972e-17
1.62671e-06
5.61865e-16
1.62671e-06
1.24528e-15
1.62671e-06
1.76214e-15
1.62671e-06
1.83406e-15
1.62671e-06
1.4121e-15
1.62671e-06
6.93783e-16
1.62671e-06