/*--------------------------------*- C++ -*----------------------------------*\
  =========                 |
  \\      /  F ield         | OpenFOAM: The Open Source CFD Toolbox
   \\    /   O peration     | Website:  https://openfoam.org
    \\  /    A nd           | Version:  6
     \\/     M anipulation  |
\*---------------------------------------------------------------------------*/
FoamFile
{
    version     2.0;
    format      ascii;
    class       volVectorField;
    location    "19.44";
    object      U;
}
// * * * * * * * * * * * * * * * * * * * * * * * * * * * * * * * * * * * * * //

dimensions      [0 1 -1 0 0 0 0];

internalField   nonuniform List<vector> 
3240
(
(0.0243859 1.92904e-12 2.22794e-31)
(0.0243859 9.54338e-14 2.50029e-31)
(0.0243859 -3.42624e-13 -2.04217e-32)
(0.0243859 -2.24969e-13 -4.97449e-33)
(0.0243859 -3.84738e-14 -1.98771e-32)
(0.0243859 1.23053e-13 -1.24979e-32)
(0.0243859 1.93735e-13 7.27962e-33)
(0.0243859 1.34268e-13 3.63871e-32)
(0.0243859 -9.70463e-14 -7.11711e-36)
(0.0243859 -4.18234e-13 -4.0776e-32)
(0.0243859 -7.74482e-13 6.18368e-33)
(0.0243859 -1.07609e-12 -1.72649e-31)
(0.0243859 -1.14717e-12 1.83793e-34)
(0.0243859 -8.80245e-13 -9.69609e-35)
(0.0243859 -4.10437e-13 -2.97453e-31)
(0.0243859 8.24785e-14 8.4414e-32)
(0.0243859 3.52334e-13 2.1369e-32)
(0.0243859 5.20508e-13 -3.95028e-32)
(0.0243859 3.20754e-13 -5.25747e-49)
(0.0243859 1.65965e-12 -2.65505e-31)
(0.0611895 1.23952e-11 1.48525e-30)
(0.0611895 4.6427e-13 5.27871e-31)
(0.0611895 -2.26715e-12 -1.33614e-31)
(0.0611895 -1.37901e-12 2.17667e-32)
(0.0611895 -1.81012e-13 -5.31835e-35)
(0.0611895 9.03831e-13 8.33354e-36)
(0.0611895 1.28614e-12 1.76283e-45)
(0.0611895 7.58318e-13 -1.49663e-31)
(0.0611895 -7.27498e-13 -2.3542e-31)
(0.0611895 -2.92611e-12 -2.01777e-31)
(0.0611895 -5.23234e-12 1.65335e-43)
(0.0611895 -7.0668e-12 -6.02827e-31)
(0.0611895 -7.367e-12 6.12582e-31)
(0.0611895 -5.54106e-12 1.09239e-34)
(0.0611895 -2.34334e-12 -8.50939e-35)
(0.0611895 6.08234e-13 -3.89958e-43)
(0.0611895 2.43236e-12 1.01348e-31)
(0.0611895 3.39601e-12 -1.35632e-31)
(0.0611895 2.0731e-12 -4.50503e-35)
(0.0611895 1.07448e-11 -3.91146e-31)
(0.0917306 2.63951e-11 4.17061e-31)
(0.0917306 1.92004e-12 1.86567e-34)
(0.0917306 -4.38886e-12 5.09211e-31)
(0.0917306 -2.77129e-12 7.48102e-41)
(0.0917306 -5.15135e-13 5.99333e-32)
(0.0917306 1.73539e-12 7.85211e-32)
(0.0917306 2.66881e-12 9.43967e-37)
(0.0917306 1.86448e-12 -1.6493e-31)
(0.0917306 -1.0462e-12 -6.87591e-36)
(0.0917306 -5.5853e-12 -6.11736e-36)
(0.0917306 -1.06601e-11 4.20111e-31)
(0.0917306 -1.50013e-11 -6.17366e-35)
(0.0917306 -1.6126e-11 -5.28712e-31)
(0.0917306 -1.25227e-11 0)
(0.0917306 -5.73956e-12 5.76327e-31)
(0.0917306 7.27021e-13 -3.79336e-31)
(0.0917306 4.84889e-12 0)
(0.0917306 7.17055e-12 -8.1644e-32)
(0.0917306 4.61724e-12 0)
(0.0917306 2.2429e-11 8.04428e-32)
(0.11827 4.33688e-11 -2.93475e-32)
(0.11827 4.48118e-12 -1.65723e-34)
(0.11827 -6.51601e-12 3.66592e-31)
(0.11827 -4.29845e-12 1.34452e-34)
(0.11827 -1.02483e-12 0)
(0.11827 2.55101e-12 9.7499e-32)
(0.11827 4.23209e-12 3.64575e-41)
(0.11827 3.34857e-12 1.09575e-36)
(0.11827 -9.66086e-13 3.40688e-31)
(0.11827 -8.1506e-12 -1.09299e-35)
(0.11827 -1.66124e-11 -2.66994e-31)
(0.11827 -2.43102e-11 4.71312e-32)
(0.11827 -2.69594e-11 1.31345e-39)
(0.11827 -2.16567e-11 -8.35227e-35)
(0.11827 -1.06608e-11 9.02537e-40)
(0.11827 1.54966e-13 4.99902e-35)
(0.11827 7.32698e-12 2.00026e-31)
(0.11827 1.16082e-11 1.47426e-32)
(0.11827 7.87973e-12 3.44544e-35)
(0.11827 3.62258e-11 2.56972e-31)
(0.141952 6.19886e-11 2.08398e-31)
(0.141952 8.08658e-12 -6.47523e-31)
(0.141952 -8.39578e-12 -1.32459e-30)
(0.141952 -5.79603e-12 -1.8857e-31)
(0.141952 -1.65889e-12 7.39978e-35)
(0.141952 3.30179e-12 5.74451e-36)
(0.141952 5.90834e-12 -9.84694e-46)
(0.141952 5.19746e-12 -1.70563e-31)
(0.141952 -4.12738e-13 -5.41213e-36)
(0.141952 -1.04157e-11 4.96251e-36)
(0.141952 -2.27607e-11 -3.35631e-31)
(0.141952 -3.45484e-11 1.47984e-43)
(0.141952 -3.93268e-11 7.12846e-35)
(0.141952 -3.24219e-11 -1.01036e-48)
(0.141952 -1.67788e-11 -3.54439e-43)
(0.141952 -9.96374e-13 4.53738e-35)
(0.141952 9.79328e-12 2.30175e-35)
(0.141952 1.6486e-11 1.1037e-35)
(0.141952 1.1723e-11 -6.22236e-35)
(0.141952 5.10476e-11 4.55981e-31)
(0.163455 8.16138e-11 -3.55588e-31)
(0.163455 1.26998e-11 1.37497e-34)
(0.163455 -9.88155e-12 1.09135e-34)
(0.163455 -7.17465e-12 -5.6166e-35)
(0.163455 -2.39212e-12 1.1266e-32)
(0.163455 3.94866e-12 -2.52028e-40)
(0.163455 7.63475e-12 -3.45417e-32)
(0.163455 7.37219e-12 6.99534e-37)
(0.163455 6.55572e-13 -4.88645e-36)
(0.163455 -1.22243e-11 -4.56203e-36)
(0.163455 -2.883e-11 7.24694e-31)
(0.163455 -4.53499e-11 1.42512e-40)
(0.163455 -5.28726e-11 -2.87265e-31)
(0.163455 -4.45881e-11 -6.9366e-35)
(0.163455 -2.40351e-11 -1.1992e-39)
(0.163455 -2.78663e-12 4.17355e-35)
(0.163455 1.21179e-11 -2.12349e-35)
(0.163455 2.16442e-11 3.1159e-32)
(0.163455 1.60781e-11 -3.97211e-49)
(0.163455 6.63903e-11 -3.77264e-35)
(0.18322 1.01871e-10 -4.61992e-31)
(0.18322 1.82736e-11 3.04765e-52)
(0.18322 -1.08836e-11 1.05568e-30)
(0.18322 -8.37957e-12 2.44994e-31)
(0.18322 -3.19934e-12 6.33315e-35)
(0.18322 4.48324e-12 1.01473e-31)
(0.18322 9.38945e-12 -7.08366e-52)
(0.18322 9.85515e-12 5.3125e-37)
(0.18322 2.25349e-12 7.77544e-31)
(0.18322 -1.35221e-11 -9.75382e-31)
(0.18322 -3.47167e-11 -1.03213e-35)
(0.18322 -5.65626e-11 -4.16528e-35)
(0.18322 -6.7425e-11 2.69844e-31)
(0.18322 -5.80148e-11 -6.42468e-35)
(0.18322 -3.23582e-11 -1.15965e-39)
(0.18322 -5.20726e-12 3.78402e-31)
(0.18322 1.42673e-11 2.26548e-31)
(0.18322 2.70141e-11 -7.22449e-32)
(0.18322 2.09134e-11 -1.95651e-31)
(0.18322 8.19816e-11 -6.51388e-31)
(0.201552 1.22501e-10 5.45575e-31)
(0.201552 2.47555e-11 6.3868e-31)
(0.201552 -1.1398e-11 -5.48429e-31)
(0.201552 -9.37182e-12 2.65613e-31)
(0.201552 -4.05845e-12 1.56469e-32)
(0.201552 4.90457e-12 -9.62736e-32)
(0.201552 1.11579e-11 4.63882e-52)
(0.201552 1.26279e-11 1.78614e-31)
(0.201552 4.37958e-12 4.0631e-36)
(0.201552 -1.42779e-11 3.95874e-36)
(0.201552 -4.03558e-11 -3.75877e-31)
(0.201552 -6.80763e-11 1.59245e-31)
(0.201552 -8.2855e-11 -5.67779e-49)
(0.201552 -7.25965e-11 4.55771e-31)
(0.201552 -4.16949e-11 -4.6717e-31)
(0.201552 -8.25044e-12 3.65877e-31)
(0.201552 1.62183e-11 3.71408e-35)
(0.201552 3.25461e-11 7.7106e-32)
(0.201552 2.62056e-11 -2.42796e-35)
(0.201552 9.76519e-11 6.46188e-35)
(0.218677 1.43301e-10 6.1019e-31)
(0.218677 3.20903e-11 6.27635e-31)
(0.218677 -1.13382e-11 -8.908e-35)
(0.218677 -1.01204e-11 2.83836e-31)
(0.218677 -4.94788e-12 2.77804e-32)
(0.218677 5.21686e-12 -9.01496e-32)
(0.218677 1.29311e-11 -2.94009e-32)
(0.218677 1.5672e-11 3.54916e-31)
(0.218677 7.02446e-12 -3.92072e-31)
(0.218677 -1.44819e-11 1.46366e-30)
(0.218677 -4.57065e-11 8.83155e-36)
(0.218677 -7.98095e-11 -8.82825e-32)
(0.218677 -9.90577e-11 -2.42726e-31)
(0.218677 -8.82395e-11 -4.40784e-31)
(0.218677 -5.19919e-11 -4.54968e-31)
(0.218677 -1.18999e-11 -3.56915e-31)
(0.218677 1.79574e-11 -1.75359e-35)
(0.218677 3.82026e-11 4.14714e-32)
(0.218677 3.19337e-11 2.01004e-31)
(0.218677 1.13277e-10 1.8043e-39)
(0.234764 1.64128e-10 6.58004e-31)
(0.234764 4.02278e-11 -1.23185e-30)
(0.234764 -1.06884e-11 -1.41896e-39)
(0.234764 -1.05964e-11 -2.98367e-31)
(0.234764 -5.85041e-12 2.65185e-35)
(0.234764 5.42265e-12 8.22705e-32)
(0.234764 1.46956e-11 2.86356e-32)
(0.234764 1.89649e-11 -1.73072e-31)
(0.234764 1.01751e-11 -9.2878e-40)
(0.234764 -1.41346e-11 -4.78786e-31)
(0.234764 -5.07078e-11 3.88027e-31)
(0.234764 -9.16686e-11 -2.00941e-31)
(0.234764 -1.15926e-10 -2.25104e-31)
(0.234764 -1.04868e-10 2.04545e-39)
(0.234764 -6.32228e-11 -4.45853e-31)
(0.234764 -1.6165e-11 -3.52092e-31)
(0.234764 1.94569e-11 -2.20416e-31)
(0.234764 4.3942e-11 -4.63768e-32)
(0.234764 3.80755e-11 0)
(0.234764 1.28776e-10 -7.82392e-31)
(0.249947 1.84881e-10 2.15581e-35)
(0.249947 4.9109e-11 -6.01578e-31)
(0.249947 -9.48216e-12 -6.03304e-31)
(0.249947 -1.07954e-11 -6.13665e-31)
(0.249947 -6.73649e-12 -5.23258e-32)
(0.249947 5.54219e-12 1.45835e-31)
(0.249947 1.64423e-11 4.20344e-32)
(0.249947 2.24727e-11 -3.51264e-31)
(0.249947 1.37931e-11 -1.19086e-44)
(0.249947 -1.32366e-11 -9.22626e-31)
(0.249947 -5.53591e-11 -3.71117e-31)
(0.249947 -1.03572e-10 -8.0538e-32)
(0.249947 -1.33351e-10 2.30375e-31)
(0.249947 -1.22392e-10 8.21024e-31)
(0.249947 -7.53444e-11 4.18341e-31)
(0.249947 -2.10415e-11 0)
(0.249947 2.07006e-11 2.01418e-31)
(0.249947 4.97209e-11 3.8038e-32)
(0.249947 4.45907e-11 -2.03365e-31)
(0.249947 1.4408e-10 -2.64862e-35)
(0.264333 2.05339e-10 -8.59802e-31)
(0.264333 5.86753e-11 2.68709e-31)
(0.264333 -7.67123e-12 8.57566e-35)
(0.264333 -1.07014e-11 -2.89078e-31)
(0.264333 -7.61362e-12 -8.58476e-32)
(0.264333 5.56585e-12 2.91969e-32)
(0.264333 1.82189e-11 5.43654e-38)
(0.264333 2.62558e-11 1.2188e-31)
(0.264333 1.79181e-11 1.74894e-31)
(0.264333 -1.18337e-11 3.58235e-36)
(0.264333 -5.97666e-11 -3.85823e-31)
(0.264333 -1.15716e-10 -2.02303e-32)
(0.264333 -1.51457e-10 2.80209e-31)
(0.264333 -1.40765e-10 0)
(0.264333 -8.81944e-11 1.76581e-31)
(0.264333 -2.63509e-11 1.92162e-31)
(0.264333 2.18111e-11 2.75328e-31)
(0.264333 5.56281e-11 8.691e-36)
(0.264333 5.15457e-11 -2.39131e-31)
(0.264333 1.59122e-10 5.56134e-31)
(0.28209 2.31743e-10 -6.54909e-35)
(0.28209 7.19723e-11 -4.47556e-31)
(0.28209 -4.5323e-12 -8.05741e-31)
(0.28209 -1.01517e-11 9.51393e-31)
(0.28209 -8.67529e-12 -2.31998e-31)
(0.28209 5.5017e-12 -1.04685e-31)
(0.28209 2.04349e-11 4.75383e-37)
(0.28209 3.13246e-11 1.45621e-31)
(0.28209 2.37952e-11 -7.82362e-31)
(0.28209 -9.2722e-12 0)
(0.28209 -6.48007e-11 -4.20091e-31)
(0.28209 -1.31131e-10 5.53241e-32)
(0.28209 -1.75318e-10 0)
(0.28209 -1.65665e-10 4.96061e-31)
(0.28209 -1.06155e-10 -7.51643e-31)
(0.28209 -3.42423e-11 5.48744e-31)
(0.28209 2.27249e-11 -3.24353e-31)
(0.28209 6.31759e-11 -1.87404e-32)
(0.28209 6.09496e-11 0)
(0.28209 1.78361e-10 1.78207e-30)
(0.302987 2.6411e-10 -1.52561e-34)
(0.302987 9.03468e-11 1.03297e-31)
(0.302987 1.01076e-12 -1.04397e-30)
(0.302987 -8.6681e-12 -5.72818e-31)
(0.302987 -9.8811e-12 3.12102e-31)
(0.302987 5.26372e-12 0)
(0.302987 2.3287e-11 0)
(0.302987 3.83437e-11 -3.50278e-32)
(0.302987 3.24099e-11 1.06815e-30)
(0.302987 -4.8025e-12 6.00298e-31)
(0.302987 -7.05008e-11 3.92828e-31)
(0.302987 -1.51039e-10 2.60956e-32)
(0.302987 -2.06961e-10 -3.57266e-31)
(0.302987 -1.99112e-10 -4.61153e-31)
(0.302987 -1.30656e-10 -4.90126e-31)
(0.302987 -4.53503e-11 -3.53583e-31)
(0.302987 2.34679e-11 -4.152e-31)
(0.302987 7.29379e-11 -1.79862e-32)
(0.302987 7.38806e-11 6.30379e-31)
(0.302987 2.01927e-10 -2.55045e-30)
(0.32364 2.9749e-10 -1.38621e-30)
(0.32364 1.11394e-10 -9.95009e-32)
(0.32364 8.62111e-12 2.90225e-30)
(0.32364 -6.08629e-12 -1.82576e-34)
(0.32364 -1.08974e-11 2.05841e-31)
(0.32364 4.87076e-12 -2.65729e-32)
(0.32364 2.61996e-11 3.72836e-33)
(0.32364 4.61449e-11 3.53834e-32)
(0.32364 4.26246e-11 -3.96899e-31)
(0.32364 1.41691e-12 7.94578e-32)
(0.32364 -7.52344e-11 5.75778e-31)
(0.32364 -1.71563e-10 3.86164e-33)
(0.32364 -2.4125e-10 -4.61168e-32)
(0.32364 -2.36559e-10 -6.62865e-31)
(0.32364 -1.59042e-10 9.03978e-31)
(0.32364 -5.90188e-11 -7.42086e-31)
(0.32364 2.32332e-11 -5.40274e-32)
(0.32364 8.30827e-11 1.79337e-32)
(0.32364 8.84528e-11 4.0497e-31)
(0.32364 2.26143e-10 -1.68137e-30)
(0.344081 3.31359e-10 -1.95739e-31)
(0.344081 1.35128e-10 9.47468e-32)
(0.344081 1.85487e-11 3.96872e-31)
(0.344081 -2.22384e-12 4.10339e-34)
(0.344081 -1.16118e-11 -2.19453e-31)
(0.344081 4.388e-12 -7.61459e-34)
(0.344081 2.92683e-11 1.46507e-33)
(0.344081 5.48782e-11 -3.03726e-31)
(0.344081 5.45738e-11 -1.28843e-30)
(0.344081 9.40333e-12 -6.87198e-31)
(0.344081 -7.91713e-11 -5.21931e-31)
(0.344081 -1.93109e-10 -8.41202e-32)
(0.344081 -2.78548e-10 4.44272e-32)
(0.344081 -2.78134e-10 5.84442e-31)
(0.344081 -1.91256e-10 1.14757e-30)
(0.344081 -7.51239e-11 3.00997e-31)
(0.344081 2.21613e-11 4.36365e-31)
(0.344081 9.37496e-11 4.03714e-32)
(0.344081 1.04886e-10 -6.82608e-31)
(0.344081 2.50863e-10 2.9278e-30)
(0.364333 3.65565e-10 1.80113e-30)
(0.364333 1.61582e-10 -8.8049e-32)
(0.364333 3.10634e-11 -2.48583e-30)
(0.364333 3.15493e-12 -6.13801e-31)
(0.364333 -1.19133e-11 -3.35438e-32)
(0.364333 3.85236e-12 -1.9898e-33)
(0.364333 3.24515e-11 -3.31355e-33)
(0.364333 6.44875e-11 2.68688e-31)
(0.364333 6.83023e-11 6.04364e-31)
(0.364333 1.93746e-11 -6.03286e-31)
(0.364333 -8.19549e-11 -3.43701e-35)
(0.364333 -2.15278e-10 -4.29228e-32)
(0.364333 -3.18662e-10 -4.30645e-32)
(0.364333 -3.24027e-10 5.02475e-31)
(0.364333 -2.27779e-10 -5.23663e-31)
(0.364333 -9.41735e-11 1.08749e-30)
(0.364333 1.99947e-11 1.59438e-31)
(0.364333 1.0464e-10 0)
(0.364333 1.23231e-10 -6.80295e-31)
(0.364333 2.76102e-10 2.99278e-30)
(0.384417 3.99837e-10 -1.90091e-34)
(0.384417 1.90714e-10 8.01781e-32)
(0.384417 4.64064e-11 1.20002e-30)
(0.384417 1.02938e-11 -1.37348e-30)
(0.384417 -1.15889e-11 3.35483e-31)
(0.384417 3.34375e-12 4.27658e-32)
(0.384417 3.57621e-11 4.74365e-32)
(0.384417 7.49619e-11 -2.32376e-31)
(0.384417 8.38444e-11 2.67375e-35)
(0.384417 3.14481e-11 -7.81867e-32)
(0.384417 -8.3405e-11 0)
(0.384417 -2.37907e-10 6.38276e-49)
(0.384417 -3.6151e-10 4.16861e-32)
(0.384417 -3.74348e-10 6.34903e-32)
(0.384417 -2.68893e-10 -4.41768e-31)
(0.384417 -1.16496e-10 -2.75955e-31)
(0.384417 1.62974e-11 -1.15698e-31)
(0.384417 1.15826e-10 -8.48414e-32)
(0.384417 1.43576e-10 2.74226e-31)
(0.384417 3.01856e-10 1.86563e-31)
(0.40435 4.33915e-10 7.80761e-50)
(0.40435 2.22433e-10 -6.04534e-31)
(0.40435 6.4792e-11 -1.07234e-30)
(0.40435 1.94443e-11 5.82492e-31)
(0.40435 -1.0445e-11 -3.60574e-34)
(0.40435 2.96143e-12 -6.51024e-32)
(0.40435 3.92036e-11 -5.80868e-32)
(0.40435 8.6266e-11 -3.34307e-31)
(0.40435 1.01191e-10 5.10904e-31)
(0.40435 4.57364e-11 1.24306e-30)
(0.40435 -8.3267e-11 -3.88574e-35)
(0.40435 -2.60761e-10 4.79932e-32)
(0.40435 -4.06914e-10 -3.91032e-32)
(0.40435 -4.29157e-10 -1.43473e-30)
(0.40435 -3.14906e-10 -4.70804e-31)
(0.40435 -1.42494e-10 -6.77585e-31)
(0.40435 1.08878e-11 -2.63483e-31)
(0.40435 1.27004e-10 -1.16589e-31)
(0.40435 1.65949e-10 6.93913e-31)
(0.40435 3.28193e-10 -4.4198e-30)
(0.424143 4.67597e-10 2.0374e-34)
(0.424143 2.56602e-10 8.94568e-31)
(0.424143 8.63974e-11 -1.21598e-30)
(0.424143 3.08612e-11 1.56618e-30)
(0.424143 -8.30539e-12 -3.79955e-31)
(0.424143 2.82363e-12 -1.11374e-31)
(0.424143 4.27963e-11 -8.1054e-32)
(0.424143 9.83408e-11 2.93375e-31)
(0.424143 1.20295e-10 -4.2825e-31)
(0.424143 6.23202e-11 1.20984e-30)
(0.424143 -8.13579e-11 3.80572e-31)
(0.424143 -2.83499e-10 2.00604e-31)
(0.424143 -4.5461e-10 5.92469e-31)
(0.424143 -4.88437e-10 -5.38318e-31)
(0.424143 -3.66091e-10 3.86637e-31)
(0.424143 -1.72592e-10 -2.79261e-31)
(0.424143 3.43178e-12 0)
(0.424143 1.37936e-10 -1.25115e-31)
(0.424143 1.90344e-10 2.88707e-31)
(0.424143 3.55166e-10 -1.75007e-30)
(0.443808 5.00707e-10 1.93979e-30)
(0.443808 2.93028e-10 7.92062e-31)
(0.443808 1.1134e-10 1.06303e-30)
(0.443808 4.48059e-11 6.74314e-49)
(0.443808 -4.87742e-12 -4.73871e-31)
(0.443808 3.07889e-12 1.38018e-31)
(0.443808 4.65633e-11 8.2001e-32)
(0.443808 1.11098e-10 2.50884e-31)
(0.443808 1.4107e-10 -5.96281e-31)
(0.443808 8.12488e-11 -4.76304e-31)
(0.443808 -7.7637e-11 3.43086e-31)
(0.443808 -3.05577e-10 2.12551e-32)
(0.443808 -5.04233e-10 3.33517e-32)
(0.443808 -5.52082e-10 4.36688e-31)
(0.443808 -4.22683e-10 4.00295e-31)
(0.443808 -2.07251e-10 2.23024e-31)
(0.443808 -6.53923e-12 7.62444e-32)
(0.443808 1.48419e-10 2.79952e-31)
(0.443808 2.16682e-10 -2.29618e-31)
(0.443808 3.82859e-10 4.22997e-30)
(0.463353 5.33122e-10 2.26123e-30)
(0.463353 3.31478e-10 -4.89753e-31)
(0.463353 1.39692e-10 1.36963e-31)
(0.463353 6.15122e-11 7.24671e-31)
(0.463353 9.38343e-14 4.57099e-31)
(0.463353 3.91315e-12 2.0523e-31)
(0.463353 5.05312e-11 1.02969e-31)
(0.463353 1.24451e-10 3.16726e-32)
(0.463353 1.63354e-10 5.06248e-31)
(0.463353 1.02524e-10 -1.37968e-31)
(0.463353 -7.1496e-11 -2.51981e-31)
(0.463353 -3.26971e-10 1.84158e-31)
(0.463353 -5.55354e-10 -4.9494e-31)
(0.463353 -6.19843e-10 -3.32589e-31)
(0.463353 -4.84857e-10 3.15753e-31)
(0.463353 -2.46954e-10 6.05785e-32)
(0.463353 -1.94754e-11 6.93397e-33)
(0.463353 1.58091e-10 2.43732e-31)
(0.463353 2.44857e-10 -3.00512e-31)
(0.463353 4.11351e-10 3.44817e-31)
(0.482786 5.64784e-10 -2.04281e-30)
(0.482786 3.71688e-10 -1.68151e-31)
(0.482786 1.71466e-10 -1.32964e-31)
(0.482786 8.11908e-11 9.56803e-32)
(0.482786 6.89273e-12 -4.27535e-31)
(0.482786 5.51041e-12 -2.23965e-31)
(0.482786 5.4769e-11 -1.03026e-31)
(0.482786 1.38279e-10 -3.0396e-32)
(0.482786 1.86948e-10 -4.18871e-31)
(0.482786 1.2609e-10 6.28974e-31)
(0.482786 -6.29427e-11 -2.66458e-31)
(0.482786 -3.46994e-10 2.84809e-31)
(0.482786 -6.07407e-10 1.79479e-31)
(0.482786 -6.91369e-10 -3.71033e-32)
(0.482786 -5.52714e-10 3.10759e-31)
(0.482786 -2.92193e-10 -2.53518e-31)
(0.482786 -3.5893e-11 -5.00071e-33)
(0.482786 1.66521e-10 -2.47267e-31)
(0.482786 2.74619e-10 2.36882e-31)
(0.482786 4.40778e-10 -2.87516e-30)
(0.502113 5.95703e-10 -2.34304e-30)
(0.502113 4.13368e-10 2.02365e-32)
(0.502113 2.06598e-10 1.25008e-31)
(0.502113 1.04026e-10 -8.27698e-31)
(0.502113 1.58129e-11 -6.61572e-31)
(0.502113 8.09968e-12 -3.4584e-32)
(0.502113 5.93462e-11 -1.57337e-32)
(0.502113 1.52456e-10 2.49261e-31)
(0.502113 2.11582e-10 -5.09213e-32)
(0.502113 1.51823e-10 -9.95013e-31)
(0.502113 -5.17351e-11 1.95669e-49)
(0.502113 -3.65177e-10 -4.82197e-31)
(0.502113 -6.59648e-10 3.76369e-31)
(0.502113 -7.66238e-10 2.51749e-31)
(0.502113 -6.26247e-10 -2.29235e-31)
(0.502113 -3.43449e-10 1.90887e-31)
(0.502113 -5.64261e-11 3.27018e-33)
(0.502113 1.73244e-10 4.48616e-31)
(0.502113 3.05645e-10 1.33433e-34)
(0.502113 4.71238e-10 0)
(0.521339 6.25966e-10 -2.08313e-30)
(0.521339 4.56227e-10 9.98031e-34)
(0.521339 2.44954e-10 -1.17411e-31)
(0.521339 1.30159e-10 3.26332e-50)
(0.521339 2.7147e-11 7.25437e-32)
(0.521339 1.19432e-11 3.89791e-32)
(0.521339 6.43435e-11 -1.21649e-31)
(0.521339 1.66838e-10 -2.09222e-31)
(0.521339 2.36941e-10 4.01407e-31)
(0.521339 1.79502e-10 -5.64831e-32)
(0.521339 -3.77404e-11 0)
(0.521339 -3.80917e-10 -2.53063e-31)
(0.521339 -7.11338e-10 -2.30344e-31)
(0.521339 -8.43745e-10 -1.73077e-31)
(0.521339 -7.05322e-10 -3.83285e-31)
(0.521339 -4.0117e-10 1.32023e-31)
(0.521339 -8.17157e-11 -2.06153e-32)
(0.521339 1.77635e-10 2.90986e-32)
(0.521339 3.37516e-10 2.7582e-34)
(0.521339 5.02798e-10 0)
(0.540468 6.55725e-10 -2.73433e-31)
(0.540468 4.99979e-10 2.17714e-31)
(0.540468 2.86337e-10 1.08758e-31)
(0.540468 1.59681e-10 -7.09167e-31)
(0.540468 4.11951e-11 -7.54257e-32)
(0.540468 1.73011e-11 -4.29113e-32)
(0.540468 6.98672e-11 -4.25319e-32)
(0.540468 1.81276e-10 -2.24059e-31)
(0.540468 2.62656e-10 3.21204e-31)
(0.540468 2.08841e-10 5.09727e-32)
(0.540468 -2.0857e-11 -6.07806e-35)
(0.540468 -3.93629e-10 4.40988e-31)
(0.540468 -7.61578e-10 -1.47695e-31)
(0.540468 -9.23054e-10 -1.56578e-32)
(0.540468 -7.89644e-10 -1.77951e-32)
(0.540468 -4.6575e-10 -7.85101e-32)
(0.540468 -1.12498e-10 -2.52647e-48)
(0.540468 1.78968e-10 -2.45853e-31)
(0.540468 3.69733e-10 1.41433e-34)
(0.540468 5.35473e-10 3.88239e-34)
(0.559505 6.85194e-10 2.70985e-31)
(0.559505 5.44355e-10 -2.87942e-31)
(0.559505 3.30496e-10 -9.92998e-32)
(0.559505 1.92624e-10 -9.03907e-32)
(0.559505 5.82231e-11 1.27635e-30)
(0.559505 2.4457e-11 3.96884e-31)
(0.559505 7.60508e-11 4.16415e-31)
(0.559505 1.95627e-10 1.87435e-31)
(0.559505 2.88312e-10 3.78193e-32)
(0.559505 2.39453e-10 2.96928e-31)
(0.559505 -1.02892e-12 1.30825e-34)
(0.559505 -4.02739e-10 2.75254e-31)
(0.559505 -8.09378e-10 -6.74899e-34)
(0.559505 -1.00314e-09 1.21052e-31)
(0.559505 -8.78726e-10 7.96029e-32)
(0.559505 -5.37483e-10 -1.10886e-32)
(0.559505 -1.49522e-10 -7.8762e-33)
(0.559505 1.76574e-10 1.67888e-31)
(0.559505 4.01476e-10 1.43268e-34)
(0.559505 5.69194e-10 1.0789e-30)
(0.578453 7.14625e-10 -2.30152e-30)
(0.578453 5.89125e-10 -1.00661e-30)
(0.578453 3.77121e-10 7.69271e-31)
(0.578453 2.28961e-10 7.45656e-31)
(0.578453 7.84735e-11 6.96426e-31)
(0.578453 3.37076e-11 0)
(0.578453 8.30367e-11 2.04875e-31)
(0.578453 2.09756e-10 3.78667e-31)
(0.578453 3.13469e-10 -2.89174e-31)
(0.578453 2.70839e-10 -2.15017e-31)
(0.578453 2.16967e-11 -7.09627e-35)
(0.578453 -4.07616e-10 -6.56566e-31)
(0.578453 -8.53679e-10 -1.76776e-32)
(0.578453 -1.08281e-09 -9.79547e-33)
(0.578453 -9.71862e-10 8.03391e-33)
(0.578453 -6.16517e-10 -1.76305e-32)
(0.578453 -1.93602e-10 -5.52913e-32)
(0.578453 1.6985e-10 1.20948e-32)
(0.578453 4.31669e-10 1.48706e-31)
(0.578453 6.03775e-10 1.16801e-30)
(0.597316 7.44275e-10 1.99544e-30)
(0.597316 6.34116e-10 1.65614e-30)
(0.597316 4.25874e-10 1.46676e-33)
(0.597316 2.68591e-10 0)
(0.597316 1.02149e-10 6.25505e-31)
(0.597316 4.53362e-11 -1.56334e-34)
(0.597316 9.09927e-11 -1.94484e-31)
(0.597316 2.23545e-10 2.20707e-32)
(0.597316 3.3767e-10 2.25077e-31)
(0.597316 3.02425e-10 -5.73813e-31)
(0.597316 4.71456e-11 2.44223e-31)
(0.597316 -4.07681e-10 1.28382e-31)
(0.597316 -8.93409e-10 -1.60094e-31)
(0.597316 -1.16065e-09 1.43666e-31)
(0.597316 -1.06807e-09 5.49159e-32)
(0.597316 -7.02815e-10 4.48178e-32)
(0.597316 -2.45545e-10 4.42177e-32)
(0.597316 1.57313e-10 -1.42987e-31)
(0.597316 4.59866e-10 3.21263e-32)
(0.597316 6.38892e-10 1.55954e-34)
(0.616096 7.74368e-10 2.20627e-30)
(0.616096 6.79188e-10 2.20444e-30)
(0.616096 4.76421e-10 -3.19944e-33)
(0.616096 3.11348e-10 -5.84192e-31)
(0.616096 1.29394e-10 -5.44424e-31)
(0.616096 5.96147e-11 -4.00262e-31)
(0.616096 1.00099e-10 -3.06433e-31)
(0.616096 2.36907e-10 -3.41614e-31)
(0.616096 3.60451e-10 4.23486e-31)
(0.616096 3.33572e-10 3.99241e-31)
(0.616096 7.50217e-11 2.84278e-31)
(0.616096 -4.0291e-10 2.49465e-31)
(0.616096 -9.26985e-10 2.94424e-31)
(0.616096 -1.2351e-09 1.70072e-31)
(0.616096 -1.16599e-09 4.83158e-31)
(0.616096 -7.96183e-10 2.05153e-31)
(0.616096 -3.06096e-10 1.05146e-31)
(0.616096 1.38081e-10 -5.03233e-32)
(0.616096 4.84765e-10 -3.36868e-31)
(0.616096 6.74053e-10 1.01731e-35)
(0.634796 8.05046e-10 1.09347e-34)
(0.634796 7.24242e-10 -1.47619e-30)
(0.634796 5.28439e-10 -1.73842e-33)
(0.634796 3.57017e-10 -6.94118e-32)
(0.634796 1.60273e-10 -1.39895e-30)
(0.634796 7.68062e-11 -5.41354e-32)
(0.634796 1.10564e-10 -2.29475e-31)
(0.634796 2.49762e-10 -1.93499e-32)
(0.634796 3.81386e-10 -1.56569e-31)
(0.634796 3.63541e-10 1.5213e-31)
(0.634796 1.04916e-10 -5.06439e-31)
(0.634796 -3.92553e-10 -9.56332e-32)
(0.634796 -9.53688e-10 5.39268e-31)
(0.634796 -1.30444e-09 -3.79651e-31)
(0.634796 -1.26418e-09 -2.05237e-31)
(0.634796 -8.95938e-10 -1.36644e-31)
(0.634796 -3.75871e-10 -1.63076e-32)
(0.634796 1.11148e-10 1.74415e-31)
(0.634796 5.04961e-10 -1.09207e-34)
(0.634796 7.08589e-10 -9.00279e-31)
(0.65342 8.36314e-10 1.84478e-30)
(0.65342 7.69198e-10 -1.84914e-30)
(0.65342 5.81623e-10 0)
(0.65342 4.05345e-10 5.52143e-31)
(0.65342 1.94809e-10 6.01494e-31)
(0.65342 9.71157e-11 8.86013e-31)
(0.65342 1.22598e-10 -3.65188e-31)
(0.65342 2.62049e-10 1.737e-32)
(0.65342 4.00093e-10 -2.14472e-31)
(0.65342 3.91574e-10 -8.41267e-32)
(0.65342 1.36167e-10 -6.36364e-32)
(0.65342 -3.76348e-10 -3.02662e-32)
(0.65342 -9.72367e-10 -5.27206e-31)
(0.65342 -1.36704e-09 -2.71766e-32)
(0.65342 -1.36078e-09 -7.38458e-31)
(0.65342 -1.00105e-09 -2.52347e-32)
(0.65342 -4.5526e-10 1.93682e-31)
(0.65342 7.53885e-11 5.36256e-32)
(0.65342 5.18823e-10 3.67301e-31)
(0.65342 7.4177e-10 -1.13364e-31)
(0.671968 8.67983e-10 2.02419e-30)
(0.671968 8.13966e-10 -1.60318e-33)
(0.671968 6.35699e-10 2.56872e-31)
(0.671968 4.56056e-10 0)
(0.671968 2.32946e-10 7.49627e-32)
(0.671968 1.20703e-10 -3.60033e-31)
(0.671968 1.36378e-10 4.12882e-32)
(0.671968 2.73774e-10 -1.32872e-31)
(0.671968 4.16216e-10 1.83297e-31)
(0.671968 4.16999e-10 -9.15365e-32)
(0.671968 1.67955e-10 4.90004e-31)
(0.671968 -3.54485e-10 -8.45529e-32)
(0.671968 -9.81764e-10 -2.5256e-32)
(0.671968 -1.42121e-09 2.86678e-32)
(0.671968 -1.45347e-09 2.60666e-49)
(0.671968 -1.11025e-09 3.77869e-32)
(0.671968 -5.44395e-10 -2.21521e-31)
(0.671968 2.95814e-11 -7.69946e-32)
(0.671968 5.24602e-10 3.81792e-31)
(0.671968 7.7273e-10 1.88067e-30)
(0.690445 8.9955e-10 -1.73461e-30)
(0.690445 8.58354e-10 -1.90691e-30)
(0.690445 6.90474e-10 2.32617e-32)
(0.690445 5.08864e-10 3.07496e-33)
(0.690445 2.74557e-10 -7.09858e-32)
(0.690445 1.47674e-10 -9.21889e-31)
(0.690445 1.52084e-10 2.87273e-31)
(0.690445 2.8502e-10 1.15003e-31)
(0.690445 4.29432e-10 -1.52907e-31)
(0.690445 4.39093e-10 -1.52569e-33)
(0.690445 1.99467e-10 -1.8699e-31)
(0.690445 -3.27286e-10 -1.69543e-32)
(0.690445 -9.8186e-10 1.10811e-31)
(0.690445 -1.46432e-09 -3.24723e-31)
(0.690445 -1.54004e-09 -4.96113e-31)
(0.690445 -1.2215e-09 -7.80321e-31)
(0.690445 -6.42999e-10 -3.48183e-32)
(0.690445 -2.74246e-11 5.86778e-34)
(0.690445 5.21837e-10 2.13525e-31)
(0.690445 7.99045e-10 -8.58075e-31)
(0.708852 9.30246e-10 -2.20832e-31)
(0.708852 9.02179e-10 7.39225e-31)
(0.708852 7.45659e-10 -1.04274e-31)
(0.708852 5.63479e-10 0)
(0.708852 3.19459e-10 6.86858e-32)
(0.708852 1.78041e-10 -1.67714e-49)
(0.708852 1.69793e-10 7.57989e-31)
(0.708852 2.95898e-10 1.42176e-31)
(0.708852 4.39627e-10 -1.61802e-31)
(0.708852 4.57208e-10 -1.1749e-32)
(0.708852 2.2969e-10 -2.1154e-32)
(0.708852 -2.95187e-10 1.6745e-31)
(0.708852 -9.71041e-10 -6.64648e-33)
(0.708852 -1.49494e-09 -3.68435e-31)
(0.708852 -1.6186e-09 4.53773e-31)
(0.708852 -1.3327e-09 -5.01435e-31)
(0.708852 -7.50215e-10 4.22597e-32)
(0.708852 -9.66732e-11 -5.49527e-32)
(0.708852 5.0831e-10 9.72346e-32)
(0.708852 8.1979e-10 -2.87341e-31)
(0.727192 9.58927e-10 2.13492e-31)
(0.727192 9.45093e-10 3.5327e-30)
(0.727192 8.00967e-10 -1.52473e-32)
(0.727192 6.19615e-10 1.82781e-33)
(0.727192 3.67426e-10 -5.35742e-31)
(0.727192 2.11781e-10 3.72249e-31)
(0.727192 1.89669e-10 -3.29731e-31)
(0.727192 3.06472e-10 -8.63552e-35)
(0.727192 4.46686e-10 4.24029e-35)
(0.727192 4.70862e-10 2.30941e-32)
(0.727192 2.57558e-10 1.59834e-31)
(0.727192 -2.59265e-10 -5.98305e-32)
(0.727192 -9.48514e-10 -4.37226e-34)
(0.727192 -1.51166e-09 -3.97112e-31)
(0.727192 -1.68661e-09 7.09544e-31)
(0.727192 -1.44107e-09 1.02406e-30)
(0.727192 -8.6471e-10 -4.17593e-31)
(0.727192 -1.78871e-10 -2.25996e-34)
(0.727192 4.8108e-10 -4.07067e-32)
(0.727192 8.3457e-10 2.4716e-30)
(0.745467 9.84269e-10 -1.81682e-30)
(0.745467 9.86418e-10 1.79612e-33)
(0.745467 8.56156e-10 6.38499e-33)
(0.745467 6.7698e-10 7.32834e-48)
(0.745467 4.18202e-10 4.31337e-31)
(0.745467 2.48783e-10 3.93028e-31)
(0.745467 2.11773e-10 -3.628e-31)
(0.745467 3.16918e-10 -2.93725e-49)
(0.745467 4.50834e-10 1.31378e-34)
(0.745467 4.79448e-10 -1.79767e-32)
(0.745467 2.82031e-10 -2.51213e-48)
(0.745467 -2.20377e-10 2.84477e-32)
(0.745467 -9.14971e-10 1.71456e-33)
(0.745467 -1.51418e-09 4.44948e-31)
(0.745467 -1.74005e-09 -8.18175e-32)
(0.745467 -1.54347e-09 7.1938e-31)
(0.745467 -9.84489e-10 4.2661e-31)
(0.745467 -2.74174e-10 -1.82332e-31)
(0.745467 4.39652e-10 -9.64116e-32)
(0.745467 8.40206e-10 -1.97465e-30)
(0.76368 1.00367e-09 1.60984e-30)
(0.76368 1.02498e-09 -1.12408e-30)
(0.76368 9.10734e-10 -3.1196e-31)
(0.76368 7.35253e-10 0)
(0.76368 4.71507e-10 4.34332e-31)
(0.76368 2.88889e-10 5.89733e-34)
(0.76368 2.36203e-10 3.0805e-31)
(0.76368 3.27325e-10 -1.71501e-31)
(0.76368 4.51907e-10 1.50144e-49)
(0.76368 4.83276e-10 2.83342e-33)
(0.76368 3.02156e-10 0)
(0.76368 -1.79955e-10 1.07947e-32)
(0.76368 -8.70774e-10 -4.66432e-33)
(0.76368 -1.50051e-09 2.11539e-31)
(0.76368 -1.77724e-09 7.78109e-31)
(0.76368 -1.63669e-09 -7.24142e-31)
(0.76368 -1.10668e-09 6.26162e-32)
(0.76368 -3.82167e-10 2.20603e-31)
(0.76368 3.82585e-10 -6.57065e-33)
(0.76368 8.3573e-10 -1.04582e-30)
(0.781832 1.0164e-09 -1.37302e-30)
(0.781832 1.05979e-09 -2.46326e-30)
(0.781832 9.64024e-10 -2.86611e-32)
(0.781832 7.94051e-10 2.28025e-33)
(0.781832 5.27025e-10 0)
(0.781832 3.32049e-10 0)
(0.781832 2.62738e-10 -2.50884e-31)
(0.781832 3.37911e-10 -2.32788e-32)
(0.781832 4.50567e-10 -1.01174e-31)
(0.781832 4.81718e-10 -3.43439e-32)
(0.781832 3.17028e-10 -2.20695e-31)
(0.781832 -1.39602e-10 7.2925e-33)
(0.781832 -8.16713e-10 -2.54167e-32)
(0.781832 -1.46855e-09 -4.45308e-32)
(0.781832 -1.79825e-09 -2.52624e-33)
(0.781832 -1.71644e-09 -1.69169e-33)
(0.781832 -1.22825e-09 -5.82565e-31)
(0.781832 -5.01621e-10 7.24255e-31)
(0.781832 3.08548e-10 1.30838e-32)
(0.781832 8.17604e-10 7.96326e-31)
(0.799927 1.02021e-09 -3.9081e-31)
(0.799927 1.08948e-09 -1.53983e-31)
(0.799927 1.01509e-09 6.18622e-31)
(0.799927 8.52809e-10 0)
(0.799927 5.84408e-10 -2.8093e-31)
(0.799927 3.77875e-10 1.47709e-33)
(0.799927 2.9144e-10 -3.38176e-31)
(0.799927 3.48885e-10 2.02057e-31)
(0.799927 4.47106e-10 -1.3524e-32)
(0.799927 4.75134e-10 5.61639e-32)
(0.799927 3.25949e-10 -2.36428e-31)
(0.799927 -1.00899e-10 -1.50668e-32)
(0.799927 -7.54707e-10 2.14286e-33)
(0.799927 -1.41927e-09 9.46198e-34)
(0.799927 -1.79907e-09 -4.44689e-31)
(0.799927 -1.77981e-09 8.51213e-31)
(0.799927 -1.34511e-09 5.40508e-31)
(0.799927 -6.30158e-10 -3.13966e-49)
(0.799927 2.16843e-10 8.36397e-32)
(0.799927 7.83574e-10 -6.30085e-31)
(0.817966 1.01345e-09 1.70011e-30)
(0.817966 1.11081e-09 1.38442e-30)
(0.817966 1.06263e-09 4.75086e-32)
(0.817966 9.10804e-10 5.31732e-32)
(0.817966 6.43181e-10 -2.98693e-32)
(0.817966 4.26071e-10 -2.40919e-31)
(0.817966 3.22229e-10 2.79808e-31)
(0.817966 3.60421e-10 -1.06505e-49)
(0.817966 4.42014e-10 2.41131e-31)
(0.817966 4.64128e-10 1.15952e-32)
(0.817966 3.28557e-10 2.13261e-31)
(0.817966 -6.53249e-11 -5.83503e-34)
(0.817966 -6.86468e-10 -5.27768e-32)
(0.817966 -1.35302e-09 6.19001e-33)
(0.817966 -1.77796e-09 -4.03474e-32)
(0.817966 -1.8243e-09 -7.74029e-31)
(0.817966 -1.45232e-09 7.52374e-32)
(0.817966 -7.64215e-10 -4.86976e-31)
(0.817966 1.07359e-10 2.56091e-32)
(0.817966 7.32179e-10 4.83602e-31)
(0.835952 9.91988e-10 -1.62986e-31)
(0.835952 1.12349e-09 1.21086e-30)
(0.835952 1.10474e-09 -5.49101e-32)
(0.835952 9.67182e-10 1.48613e-32)
(0.835952 7.02765e-10 1.94363e-31)
(0.835952 4.76315e-10 -2.55957e-32)
(0.835952 3.54951e-10 -3.56475e-34)
(0.835952 3.72644e-10 -5.56437e-35)
(0.835952 4.35861e-10 1.39497e-31)
(0.835952 4.48945e-10 1.02476e-31)
(0.835952 3.2476e-10 1.51305e-31)