/*--------------------------------*- C++ -*----------------------------------*\
  =========                 |
  \\      /  F ield         | OpenFOAM: The Open Source CFD Toolbox
   \\    /   O peration     | Website:  https://openfoam.org
    \\  /    A nd           | Version:  6
     \\/     M anipulation  |
\*---------------------------------------------------------------------------*/
FoamFile
{
    version     2.0;
    format      ascii;
    class       volVectorField;
    location    "19.44";
    object      U_0;
}
// * * * * * * * * * * * * * * * * * * * * * * * * * * * * * * * * * * * * * //

dimensions      [0 1 -1 0 0 0 0];

internalField   nonuniform List<vector> 
3240
(
(0.0243866 1.89102e-12 2.18071e-31)
(0.0243866 7.76877e-14 2.45589e-31)
(0.0243866 -3.44768e-13 -1.9078e-32)
(0.0243866 -2.17654e-13 -5.77576e-33)
(0.0243866 -1.72215e-14 -2.03844e-32)
(0.0243866 1.45514e-13 -1.15362e-32)
(0.0243866 2.10186e-13 1.08357e-32)
(0.0243866 1.32559e-13 4.12442e-32)
(0.0243866 -1.28598e-13 -6.80288e-36)
(0.0243866 -4.78594e-13 -3.84064e-32)
(0.0243866 -8.52748e-13 1.6419e-32)
(0.0243866 -1.14425e-12 -2.05243e-31)
(0.0243866 -1.16062e-12 1.91176e-34)
(0.0243866 -8.27197e-13 -9.57392e-35)
(0.0243866 -3.226e-13 -2.79694e-31)
(0.0243866 1.60739e-13 7.29069e-32)
(0.0243866 4.00916e-13 1.03312e-32)
(0.0243866 5.36126e-13 -4.69379e-32)
(0.0243866 3.08036e-13 -4.63275e-49)
(0.0243866 1.63188e-12 -2.61493e-31)
(0.0611909 1.2188e-11 1.44695e-30)
(0.0611909 3.58429e-13 5.2025e-31)
(0.0611909 -2.28977e-12 -1.2812e-31)
(0.0611909 -1.31266e-12 1.40539e-32)
(0.0611909 -4.90686e-14 -4.95137e-35)
(0.0611909 1.05216e-12 5.16571e-36)
(0.0611909 1.38784e-12 5.7741e-46)
(0.0611909 7.35015e-13 -1.70527e-31)
(0.0611909 -9.52831e-13 -2.48736e-31)
(0.0611909 -3.32923e-12 -1.94641e-31)
(0.0611909 -5.73383e-12 2.30337e-43)
(0.0611909 -7.48635e-12 -7.31315e-31)
(0.0611909 -7.43233e-12 6.6264e-31)
(0.0611909 -5.18561e-12 1.07882e-34)
(0.0611909 -1.79122e-12 -8.12325e-35)
(0.0611909 1.08224e-12 -3.51574e-43)
(0.0611909 2.73461e-12 5.85864e-32)
(0.0611909 3.48838e-12 -1.64807e-31)
(0.0611909 1.99333e-12 -3.96985e-35)
(0.0611909 1.05619e-11 -3.84334e-31)
(0.0917324 2.59631e-11 3.98808e-31)
(0.0917324 1.68999e-12 1.86907e-34)
(0.0917324 -4.44153e-12 4.98255e-31)
(0.0917324 -2.64872e-12 6.85875e-41)
(0.0917324 -2.51999e-13 6.82328e-32)
(0.0917324 2.04323e-12 7.93221e-32)
(0.0917324 2.9042e-12 2.52699e-37)
(0.0917324 1.85629e-12 -1.8995e-31)
(0.0917324 -1.48123e-12 -6.58509e-36)
(0.0917324 -6.42527e-12 -4.03338e-36)
(0.0917324 -1.17617e-11 3.12971e-31)
(0.0917324 -1.59723e-11 -6.89212e-35)
(0.0917324 -1.63355e-11 -5.81175e-31)
(0.0917324 -1.17933e-11 0)
(0.0917324 -4.54915e-12 5.51593e-31)
(0.0917324 1.77828e-12 -3.43076e-31)
(0.0917324 5.53738e-12 0)
(0.0917324 7.40308e-12 -1.10864e-31)
(0.0917324 4.46005e-12 0)
(0.0917324 2.20383e-11 7.66618e-32)
(0.118272 4.26646e-11 -1.42861e-32)
(0.118272 4.09661e-12 -1.66021e-34)
(0.118272 -6.61536e-12 3.61559e-31)
(0.118272 -4.12128e-12 1.31692e-34)
(0.118272 -6.24753e-13 0)
(0.118272 3.0405e-12 1.01958e-31)
(0.118272 4.64083e-12 1.37524e-41)
(0.118272 3.39661e-12 9.56451e-37)
(0.118272 -1.6044e-12 3.68388e-31)
(0.118272 -9.48492e-12 -7.25765e-36)
(0.118272 -1.84454e-11 -2.39104e-31)
(0.118272 -2.6012e-11 1.05043e-31)
(0.118272 -2.74353e-11 1.48958e-39)
(0.118272 -2.05392e-11 -8.25247e-35)
(0.118272 -8.70813e-12 8.7816e-40)
(0.118272 1.92562e-12 4.50988e-35)
(0.118272 8.53068e-12 1.6233e-31)
(0.118272 1.20609e-11 4.26042e-32)
(0.118272 7.65708e-12 3.03441e-35)
(0.118272 3.55927e-11 2.56702e-31)
(0.141955 6.09807e-11 2.2199e-31)
(0.141955 7.52675e-12 -6.4602e-31)
(0.141955 -8.55393e-12 -1.30856e-30)
(0.141955 -5.57336e-12 -1.77737e-31)
(0.141955 -1.12563e-12 6.8904e-35)
(0.141955 3.9849e-12 3.53151e-36)
(0.141955 6.52487e-12 -1.03879e-46)
(0.141955 5.34592e-12 -1.99815e-31)
(0.141955 -1.23948e-12 -5.18884e-36)
(0.141955 -1.22759e-11 3.31425e-36)
(0.141955 -2.54299e-11 -3.11796e-31)
(0.141955 -3.71273e-11 1.65168e-43)
(0.141955 -4.0167e-11 7.421e-35)
(0.141955 -3.09083e-11 -9.98612e-49)
(0.141955 -1.39733e-11 -3.386e-43)
(0.141955 1.60351e-12 4.09496e-35)
(0.141955 1.16104e-11 1.75523e-35)
(0.141955 1.72206e-11 7.60397e-36)
(0.141955 1.14434e-11 -5.47618e-35)
(0.141955 5.01469e-11 4.53314e-31)
(0.163458 8.02801e-11 -3.68624e-31)
(0.163458 1.19476e-11 1.3774e-34)
(0.163458 -1.01116e-11 1.09273e-34)
(0.163458 -6.91959e-12 -5.50225e-35)
(0.163458 -1.73609e-12 2.68014e-32)
(0.163458 4.82968e-12 -2.69877e-40)
(0.163458 8.48809e-12 -2.16544e-32)
(0.163458 7.66739e-12 5.74271e-37)
(0.163458 -3.26809e-13 -4.68605e-36)
(0.163458 -1.46255e-11 -3.06382e-36)
(0.163458 -3.24134e-11 6.7942e-31)
(0.163458 -4.89333e-11 1.39904e-41)
(0.163458 -5.41799e-11 -3.39654e-31)
(0.163458 -4.26962e-11 -6.85687e-35)
(0.163458 -2.03139e-11 -1.18251e-39)
(0.163458 7.35873e-13 3.76811e-35)
(0.163458 1.46322e-11 -1.62188e-35)
(0.163458 2.2724e-11 4.31124e-33)
(0.163458 1.57583e-11 -3.4919e-49)
(0.163458 6.52074e-11 -3.58846e-35)
(0.183222 1.00192e-10 -4.74995e-31)
(0.183222 1.7314e-11 3.04672e-52)
(0.183222 -1.12037e-11 1.04349e-30)
(0.183222 -8.1069e-12 2.3293e-31)
(0.183222 -2.43394e-12 5.89914e-35)
(0.183222 5.56335e-12 1.09476e-31)
(0.183222 1.05061e-11 2.12471e-52)
(0.183222 1.03437e-11 4.09929e-37)
(0.183222 1.14962e-12 8.4046e-31)
(0.183222 -1.64691e-11 -1.00402e-30)
(0.183222 -3.92811e-11 -1.45051e-35)
(0.183222 -6.12664e-11 -4.65479e-35)
(0.183222 -6.92993e-11 3.21348e-31)
(0.183222 -5.57703e-11 -6.35239e-35)
(0.183222 -2.76709e-11 -1.14543e-39)
(0.183222 -6.86518e-13 3.57544e-31)
(0.183222 1.75624e-11 1.94906e-31)
(0.183222 2.84999e-11 -1.99516e-32)
(0.183222 2.05721e-11 -2.06288e-31)
(0.183222 8.05057e-11 -6.46931e-31)
(0.201555 1.20461e-10 5.58702e-31)
(0.201555 2.35749e-11 6.38714e-31)
(0.201555 -1.18062e-11 -5.45495e-31)
(0.201555 -9.09684e-12 2.53039e-31)
(0.201555 -3.19856e-12 -5.9919e-34)
(0.201555 6.1825e-12 -1.04752e-31)
(0.201555 1.25617e-11 -3.92587e-52)
(0.201555 1.33557e-11 2.09096e-31)
(0.201555 3.19199e-12 3.89831e-36)
(0.201555 -1.77724e-11 2.69046e-36)
(0.201555 -4.59576e-11 -3.5388e-31)
(0.201555 -7.40074e-11 5.6857e-32)
(0.201555 -8.53939e-11 -5.91618e-49)
(0.201555 -7.00313e-11 4.76736e-31)
(0.201555 -3.60006e-11 -4.61902e-31)
(0.201555 -2.65934e-12 3.45877e-31)
(0.201555 2.03693e-11 2.84606e-35)
(0.201555 3.44972e-11 2.63026e-32)
(0.201555 2.58635e-11 -2.12963e-35)
(0.201555 9.58757e-11 6.14039e-35)
(0.21868 1.4089e-10 6.2365e-31)
(0.21868 3.06753e-11 6.27736e-31)
(0.21868 -1.18556e-11 -8.92018e-35)
(0.21868 -9.85881e-12 2.69761e-31)
(0.21868 -4.00927e-12 1.15773e-32)
(0.21868 6.68982e-12 -9.91201e-32)
(0.21868 1.46435e-11 -1.72176e-32)
(0.21868 1.66836e-11 4.15103e-31)
(0.21868 5.79089e-12 -4.23696e-31)
(0.21868 -1.85194e-11 1.51352e-30)
(0.21868 -5.23966e-11 1.24668e-35)
(0.21868 -8.70667e-11 -3.8501e-32)
(0.21868 -1.02355e-10 -2.92415e-31)
(0.21868 -8.53893e-11 -4.61805e-31)
(0.21868 -4.52573e-11 -4.50543e-31)
(0.21868 -5.17345e-12 -3.37393e-31)
(0.21868 2.30363e-11 -1.34601e-35)
(0.21868 4.06761e-11 1.64868e-32)
(0.21868 3.16128e-11 2.11782e-31)
(0.21868 1.11196e-10 1.7904e-39)
(0.234767 1.6133e-10 6.72592e-31)
(0.234767 3.85667e-11 -1.23249e-30)
(0.234767 -1.13349e-11 -1.40512e-39)
(0.234767 -1.03701e-11 -2.83251e-31)
(0.234767 -4.84972e-12 2.47175e-35)
(0.234767 7.08645e-12 9.18977e-32)
(0.234767 1.67366e-11 1.66698e-32)
(0.234767 2.0302e-11 -2.02213e-31)
(0.234767 8.93496e-12 -1.00465e-39)
(0.234767 -1.86948e-11 -4.96253e-31)
(0.234767 -5.85388e-11 3.65372e-31)
(0.234767 -1.00342e-10 -1.05167e-31)
(0.234767 -1.20076e-10 -2.74395e-31)
(0.234767 -1.01776e-10 2.14963e-39)
(0.234767 -5.54236e-11 -4.42624e-31)
(0.234767 -8.24286e-12 -3.324e-31)
(0.234767 2.55317e-11 -1.92984e-31)
(0.234767 4.69946e-11 -2.11926e-32)
(0.234767 3.78009e-11 0)
(0.234767 1.26387e-10 -7.7561e-31)
(0.249951 1.81681e-10 2.10591e-35)
(0.249951 4.71912e-11 -6.02024e-31)
(0.249951 -1.02571e-11 -5.97363e-31)
(0.249951 -1.06121e-11 -5.87357e-31)
(0.249951 -5.6908e-12 -3.61907e-32)
(0.249951 7.38831e-12 1.63909e-31)
(0.249951 1.88291e-11 1.85384e-32)
(0.249951 2.41737e-11 -4.08553e-31)
(0.249951 1.2585e-11 -1.17152e-44)
(0.249951 -1.83296e-11 -9.47475e-31)
(0.249951 -6.43403e-11 -3.49762e-31)
(0.249951 -1.13742e-10 -3.34771e-32)
(0.249951 -1.38444e-10 2.76316e-31)
(0.249951 -1.19106e-10 8.57405e-31)
(0.249951 -6.6465e-11 4.13707e-31)
(0.249951 -1.1869e-11 0)
(0.249951 2.78296e-11 1.75865e-31)
(0.249951 5.34108e-11 1.48392e-32)
(0.249951 4.43914e-11 -2.13394e-31)
(0.249951 1.41387e-10 -2.5115e-35)
(0.264336 2.01744e-10 -8.67806e-31)
(0.264336 5.6488e-11 2.68777e-31)
(0.264336 -8.58978e-12 8.58863e-35)
(0.264336 -1.05787e-11 -2.79225e-31)
(0.264336 -6.53901e-12 -6.43979e-32)
(0.264336 7.59839e-12 3.28656e-32)
(0.264336 2.09665e-11 5.36974e-37)
(0.264336 2.83637e-11 1.40974e-31)
(0.264336 1.6774e-11 1.87975e-31)
(0.264336 -1.74374e-11 2.50168e-36)
(0.264336 -6.99763e-11 -3.60094e-31)
(0.264336 -1.27469e-10 1.36987e-33)
(0.264336 -1.57561e-10 3.2676e-31)
(0.264336 -1.37304e-10 0)
(0.264336 -7.82042e-11 1.73141e-31)
(0.264336 -1.58753e-11 1.77603e-31)
(0.264336 3.00707e-11 2.36087e-31)
(0.264336 5.99898e-11 6.19514e-36)
(0.264336 5.14323e-11 -2.47546e-31)
(0.264336 1.56116e-10 5.52696e-31)
(0.282094 2.27601e-10 -6.39126e-35)
(0.282094 6.94227e-11 -4.47327e-31)
(0.282094 -5.65586e-12 -7.99875e-31)
(0.282094 -1.01331e-11 9.22338e-31)
(0.282094 -7.58616e-12 -1.86312e-31)
(0.282094 7.75396e-12 -1.24499e-31)
(0.282094 2.36672e-11 1.95543e-36)
(0.282094 3.3999e-11 1.67729e-31)
(0.282094 2.27958e-11 -8.39059e-31)
(0.282094 -1.55191e-11 0)
(0.282094 -7.65831e-11 -3.89674e-31)
(0.282094 -1.45016e-10 -4.0581e-32)
(0.282094 -1.82874e-10 0)
(0.282094 -1.62087e-10 5.09299e-31)
(0.282094 -9.47386e-11 -7.33213e-31)
(0.282094 -2.20125e-11 5.01881e-31)
(0.282094 3.25057e-11 -2.75965e-31)
(0.282094 6.85092e-11 5.63239e-33)
(0.282094 6.10117e-11 0)
(0.282094 1.74969e-10 1.7723e-30)
(0.302991 2.59276e-10 -1.48763e-34)
(0.302991 8.73091e-11 1.03203e-31)
(0.302991 -3.97313e-13 -1.0366e-30)
(0.302991 -8.81749e-12 -5.55774e-31)
(0.302991 -8.81267e-12 2.63628e-31)
(0.302991 7.77855e-12 0)
(0.302991 2.71786e-11 0)
(0.302991 4.18308e-11 -4.01822e-32)
(0.302991 3.1675e-11 1.14183e-30)
(0.302991 -1.18342e-11 6.03e-31)
(0.302991 -8.44147e-11 3.6518e-31)
(0.302991 -1.6781e-10 -3.81038e-32)
(0.302991 -2.1652e-10 -4.08501e-31)
(0.302991 -1.95451e-10 -4.71699e-31)
(0.302991 -1.17383e-10 -4.76453e-31)
(0.302991 -3.07837e-11 -3.21398e-31)
(0.302991 3.53507e-11 -3.50785e-31)
(0.302991 7.95937e-11 9.93387e-33)
(0.302991 7.42041e-11 6.48465e-31)
(0.302991 1.98039e-10 -2.53619e-30)
(0.323644 2.91882e-10 -1.38645e-30)
(0.323644 1.0781e-10 -9.94004e-32)
(0.323644 6.87551e-12 2.88207e-30)
(0.323644 -6.45966e-12 -1.79155e-34)
(0.323644 -9.90145e-12 1.79404e-31)
(0.323644 7.63877e-12 -4.95787e-32)
(0.323644 3.08045e-11 3.00017e-32)
(0.323644 5.05713e-11 4.0475e-32)
(0.323644 4.2284e-11 -4.22642e-31)
(0.323644 -6.39801e-12 7.94797e-32)
(0.323644 -9.14003e-11 5.4033e-31)
(0.323644 -1.91542e-10 -4.43947e-33)
(0.323644 -2.53187e-10 -5.2764e-32)
(0.323644 -2.33012e-10 -6.77843e-31)
(0.323644 -1.43834e-10 8.78149e-31)
(0.323644 -4.18564e-11 -6.73595e-31)
(0.323644 3.74932e-11 -4.62883e-32)
(0.323644 9.12991e-11 -6.93602e-33)
(0.323644 8.91738e-11 4.18846e-31)
(0.323644 2.21771e-10 -1.67014e-30)
(0.344085 3.24925e-10 -1.95864e-31)
(0.344085 1.30933e-10 9.46501e-32)
(0.344085 1.64122e-11 3.9413e-31)
(0.344085 -2.87932e-12 4.02782e-34)
(0.344085 -1.07443e-11 -1.95916e-31)
(0.344085 7.3979e-12 -3.88264e-33)
(0.344085 3.46553e-11 4.78201e-33)
(0.344085 6.03814e-11 -3.46404e-31)
(0.344085 5.4759e-11 -1.36974e-30)
(0.344085 8.20554e-13 -6.86486e-31)
(0.344085 -9.78096e-11 -4.92959e-31)
(0.344085 -2.16641e-10 4.70238e-32)
(0.344085 -2.93211e-10 5.10344e-32)
(0.344085 -2.74856e-10 5.98496e-31)
(0.344085 -1.74011e-10 1.11535e-30)
(0.344085 -5.51018e-11 2.73209e-31)
(0.344085 3.91198e-11 4.11471e-31)
(0.344085 1.03739e-10 -4.27071e-33)
(0.344085 1.06129e-10 -7.13045e-31)
(0.344085 2.46002e-10 2.90377e-30)
(0.364337 3.58242e-10 1.80173e-30)
(0.364337 1.56707e-10 -8.79514e-32)
(0.364337 2.84744e-11 -2.46893e-30)
(0.364337 2.14856e-12 -5.97147e-31)
(0.364337 -1.12305e-11 -3.05606e-32)
(0.364337 7.08754e-12 8.05057e-34)
(0.364337 3.86758e-11 -6.09206e-33)
(0.364337 7.12027e-11 3.05139e-31)
(0.364337 6.91657e-11 6.42847e-31)
(0.364337 1.00485e-11 -6.01087e-31)
(0.364337 -1.03231e-10 -5.07517e-35)
(0.364337 -2.42707e-10 2.42923e-32)
(0.364337 -3.36451e-10 -4.94043e-32)
(0.364337 -3.21247e-10 5.13744e-31)
(0.364337 -2.08436e-10 -5.07912e-31)
(0.364337 -7.10187e-11 9.84277e-31)
(0.364337 3.98769e-11 1.80641e-31)
(0.364337 1.16765e-10 0)
(0.364337 1.25164e-10 -7.11282e-31)
(0.364337 2.70773e-10 2.96436e-30)
(0.384422 3.91561e-10 -1.84488e-34)
(0.384422 1.85083e-10 8.00788e-32)
(0.384422 4.3297e-11 1.19194e-30)
(0.384422 8.86324e-12 -1.33796e-30)
(0.384422 -1.11651e-11 3.10314e-31)
(0.384422 6.78033e-12 2.27497e-32)
(0.384422 4.28746e-11 6.50625e-32)
(0.384422 8.30211e-11 -2.6231e-31)
(0.384422 8.55433e-11 2.6393e-35)
(0.384422 2.14185e-11 -7.76117e-32)
(0.384422 -1.07476e-10 0)
(0.384422 -2.69567e-10 7.18478e-49)
(0.384422 -3.82847e-10 4.77096e-32)
(0.384422 -3.7233e-10 6.47994e-32)
(0.384422 -2.47423e-10 -4.27438e-31)
(0.384422 -8.99317e-11 -2.49084e-31)
(0.384422 3.95266e-11 -1.52674e-31)
(0.384422 1.30298e-10 7.75513e-33)
(0.384422 1.46383e-10 2.8369e-31)
(0.384422 2.96101e-10 1.84715e-31)
(0.404355 4.24632e-10 7.50519e-50)
(0.404355 2.1597e-10 -6.03636e-31)
(0.404355 6.10867e-11 -1.06521e-30)
(0.404355 1.7509e-11 5.68241e-31)
(0.404355 -1.03612e-11 -3.37989e-34)
(0.404355 6.56372e-12 -4.94e-32)
(0.404355 4.72503e-11 -6.94316e-32)
(0.404355 9.5789e-11 -3.7459e-31)
(0.404354 1.03894e-10 5.44739e-31)
(0.404354 3.5066e-11 1.23019e-30)
(0.404354 -1.10299e-10 -5.88904e-35)
(0.404354 -2.96945e-10 -1.63459e-32)
(0.404355 -4.32242e-10 -4.47348e-32)
(0.404355 -4.28216e-10 -1.46199e-30)
(0.404355 -2.91323e-10 -4.54253e-31)
(0.404355 -1.1224e-10 -6.10583e-31)
(0.404355 3.7756e-11 -3.35233e-31)
(0.404355 1.44204e-10 -1.84791e-32)
(0.404355 1.69866e-10 7.1302e-31)
(0.404355 3.22062e-10 -4.38755e-30)
(0.424148 4.57262e-10 1.96945e-34)
(0.424148 2.49222e-10 8.9294e-31)
(0.424148 8.20123e-11 -1.2082e-30)
(0.424148 2.83344e-11 1.52962e-30)
(0.424148 -8.63854e-12 -3.58241e-31)
(0.424148 6.54757e-12 -9.26226e-32)
(0.424148 5.18119e-11 -9.20867e-32)
(0.424148 1.09439e-10 3.28418e-31)
(0.424148 1.24174e-10 -4.54627e-31)
(0.424148 5.10922e-11 1.19465e-30)
(0.424148 -1.11428e-10 4.09895e-31)
(0.424148 -3.24535e-10 -1.8895e-32)
(0.424148 -4.84394e-10 6.76421e-31)
(0.424148 -4.88939e-10 -5.48438e-31)
(0.424148 -3.4046e-10 3.71587e-31)
(0.424148 -1.38381e-10 -2.51626e-31)
(0.424148 3.44498e-11 0)
(0.424148 1.5804e-10 -6.9942e-32)
(0.424148 1.95676e-10 2.9975e-31)
(0.424148 3.48728e-10 -1.74349e-30)
(0.443813 4.89286e-10 1.9366e-30)
(0.443813 2.84646e-10 7.90274e-31)
(0.443813 1.06184e-10 1.05664e-30)
(0.443813 4.15934e-11 6.6321e-49)
(0.443813 -5.72162e-12 -4.50287e-31)
(0.443813 6.87044e-12 1.18206e-31)
(0.443813 5.65681e-11 9.22972e-32)
(0.443813 1.23887e-10 2.81982e-31)
(0.443813 1.46278e-10 -6.2784e-31)
(0.443813 6.95607e-11 -4.69795e-31)
(0.443813 -1.10559e-10 4.27864e-31)
(0.443813 -3.51979e-10 2.35127e-33)
(0.443813 -5.38958e-10 3.74998e-32)
(0.443813 -5.54446e-10 4.48747e-31)
(0.443813 -3.95139e-10 3.82411e-31)
(0.443813 -1.68837e-10 2.01346e-31)
(0.443813 2.88159e-11 5.95198e-32)
(0.443813 1.7196e-10 2.18086e-31)
(0.443813 2.23749e-10 -2.41028e-31)
(0.443813 3.76257e-10 4.21158e-30)
(0.463359 5.20599e-10 2.25503e-30)
(0.463359 3.22009e-10 -4.8836e-31)
(0.463359 1.33664e-10 1.36187e-31)
(0.463359 5.75166e-11 7.09102e-31)
(0.463359 -1.359e-12 4.37255e-31)
(0.463359 7.70288e-12 1.80007e-31)
(0.463359 6.15324e-11 1.1416e-31)
(0.463359 1.38986e-10 3.53531e-32)
(0.463359 1.70078e-10 5.31324e-31)
(0.463359 9.04971e-11 -1.36137e-31)
(0.463359 -1.07612e-10 -3.08458e-31)
(0.463359 -3.78638e-10 7.90355e-32)
(0.463359 -5.9547e-10 -5.30584e-31)
(0.463359 -6.2458e-10 -3.51029e-31)
(0.463359 -4.55613e-10 2.99289e-31)
(0.463359 -2.04125e-10 5.49455e-32)
(0.463359 2.0651e-11 4.9509e-33)
(0.463359 1.85394e-10 2.05154e-31)
(0.463359 2.54018e-10 -3.14338e-31)
(0.463359 4.04764e-10 3.41935e-31)
(0.482792 5.51167e-10 -2.03457e-30)
(0.482792 3.61044e-10 -1.67509e-31)
(0.482792 1.64456e-10 -1.32247e-31)
(0.482792 7.63061e-11 9.37301e-32)
(0.482792 4.72814e-12 -4.11365e-31)
(0.482792 9.24361e-12 -2.03371e-31)
(0.482792 6.67279e-11 -1.08092e-31)
(0.482792 1.54608e-10 -3.33632e-32)
(0.482792 1.95346e-10 -4.40115e-31)
(0.482792 1.13877e-10 6.21539e-31)
(0.482792 -1.02193e-10 -2.63364e-31)
(0.482792 -4.04132e-10 2.1188e-31)
(0.482792 -6.53343e-10 1.85544e-31)
(0.482792 -6.99053e-10 -3.97086e-32)
(0.482792 -5.22068e-10 2.91888e-31)
(0.482792 -2.44793e-10 -2.31537e-31)
(0.482792 9.38346e-12 -2.33946e-33)
(0.482792 1.98016e-10 -2.23927e-31)
(0.482792 2.863e-10 2.4546e-31)
(0.482792 4.34394e-10 -2.84388e-30)
(0.502119 5.81034e-10 -2.33015e-30)
(0.502119 4.01472e-10 1.99908e-32)
(0.502119 1.98487e-10 1.24361e-31)
(0.502119 9.81384e-11 -8.11732e-31)
(0.502119 1.28308e-11 -6.39616e-31)
(0.502119 1.17003e-11 -3.24356e-32)
(0.502119 7.22084e-11 -1.54095e-32)
(0.502119 1.70595e-10 2.69786e-31)
(0.502119 2.21799e-10 -5.34019e-32)
(0.502119 1.39607e-10 -9.87427e-31)
(0.502119 -9.3949e-11 3.03878e-49)
(0.502119 -4.27999e-10 -4.48478e-31)
(0.502119 -7.11924e-10 4.17638e-31)
(0.502119 -7.77369e-10 2.52504e-31)
(0.502119 -5.94597e-10 -2.12664e-31)
(0.502119 -2.91406e-10 1.75497e-31)
(0.502119 -5.62419e-12 -7.81014e-34)
(0.502119 2.0939e-10 4.40804e-31)
(0.502119 3.20299e-10 1.01874e-34)
(0.502119 4.65322e-10 0)
(0.521345 6.10323e-10 -2.06826e-30)
(0.521345 4.43008e-10 1.00108e-33)
(0.521345 2.35617e-10 -1.16864e-31)
(0.521345 1.23147e-10 3.2039e-50)
(0.521345 2.32387e-11 7.02811e-32)
(0.521345 1.53037e-11 3.74012e-32)
(0.521345 7.80464e-11 -1.14432e-31)
(0.521345 1.86762e-10 -2.23794e-31)
(0.521345 2.491e-10 4.18719e-31)
(0.521345 1.67514e-10 -5.66979e-32)
(0.521345 -8.27296e-11 0)
(0.521345 -4.49539e-10 -2.52831e-31)
(0.521345 -7.70366e-10 -3.08736e-31)
(0.521345 -8.58934e-10 -1.45094e-31)
(0.521345 -6.7317e-10 -3.48503e-31)
(0.521345 -3.44515e-10 1.21872e-31)
(0.521345 -2.50547e-11 1.99767e-32)
(0.521345 2.18962e-10 2.9962e-32)
(0.521345 3.55624e-10 2.05794e-34)
(0.521345 4.97677e-10 0)
(0.540474 6.39237e-10 -2.70988e-31)
(0.540474 4.85383e-10 2.1685e-31)
(0.540474 2.75642e-10 1.0832e-31)
(0.540474 1.51415e-10 -6.97119e-31)
(0.540474 3.62313e-11 -7.29676e-32)
(0.540474 2.03237e-11 -4.18193e-32)
(0.540474 8.43153e-11 -3.9355e-32)
(0.540474 2.02929e-10 -2.36549e-31)
(0.540474 2.76838e-10 3.32661e-31)
(0.540474 1.97338e-10 5.21139e-32)
(0.540474 -6.83757e-11 -9.96604e-35)
(0.540474 -4.68061e-10 4.48384e-31)
(0.540474 -8.27672e-10 -2.4656e-31)
(0.540474 -9.42998e-10 -1.02104e-32)
(0.540474 -7.57608e-10 -1.56614e-32)
(0.540474 -4.04635e-10 -7.25192e-32)
(0.540474 -4.9641e-11 -1.9892e-48)
(0.540474 2.26049e-10 -2.74111e-31)
(0.540474 3.91759e-10 1.02679e-34)
(0.540474 5.31543e-10 3.27715e-34)
(0.559512 6.6805e-10 2.68074e-31)
(0.559512 5.28355e-10 -2.86371e-31)
(0.559512 3.18308e-10 -9.89656e-32)
(0.559512 1.82967e-10 -8.89862e-32)
(0.559512 5.20801e-11 1.23217e-30)
(0.559512 2.70288e-11 3.90674e-31)
(0.559512 9.11122e-11 3.83922e-31)
(0.559512 2.18899e-10 1.95075e-31)
(0.559512 3.04564e-10 3.88166e-32)
(0.559512 2.28701e-10 3.09922e-31)
(0.559512 -5.07885e-11 2.17256e-34)
(0.559512 -4.82837e-10 2.78411e-31)
(0.559512 -8.82764e-10 -7.15221e-34)
(0.559512 -1.02857e-09 4.76041e-32)
(0.559512 -8.47542e-10 6.21727e-32)
(0.559512 -4.72204e-10 -1.00982e-32)
(0.559512 -8.02199e-11 -3.19001e-32)
(0.559512 2.2984e-10 2.50458e-31)
(0.559512 4.28105e-10 1.00931e-34)
(0.559512 5.66932e-10 1.06609e-30)
(0.57846 6.97086e-10 -2.27254e-30)
(0.57846 5.71726e-10 -1.00015e-30)
(0.57846 3.63308e-10 7.67433e-31)
(0.57846 2.17774e-10 7.35304e-31)
(0.57846 7.10271e-11 6.72579e-31)
(0.57846 3.56851e-11 0)
(0.57846 9.85616e-11 1.89939e-31)
(0.57846 2.34485e-10 3.87782e-31)
(0.57846 3.31784e-10 -2.9391e-31)
(0.57846 2.61137e-10 -2.28546e-31)
(0.57846 -2.99251e-11 -1.18817e-34)
(0.57846 -4.93181e-10 -6.70644e-31)
(0.57846 -9.34498e-10 -1.32591e-32)
(0.57846 -1.11443e-09 -3.504e-32)
(0.57846 -9.42382e-10 -5.19194e-33)
(0.57846 -5.47548e-10 -2.82471e-32)
(0.57846 -1.17649e-10 -9.22987e-32)
(0.57846 2.29368e-10 2.88646e-32)
(0.57846 4.63935e-10 3.92985e-32)
(0.57846 6.03754e-10 1.15488e-30)
(0.597323 7.26688e-10 1.96685e-30)
(0.597323 6.15366e-10 1.64436e-30)
(0.597323 4.10309e-10 1.4724e-33)
(0.597323 2.55729e-10 0)
(0.597323 9.32645e-11 6.05614e-31)
(0.597323 4.65696e-11 -1.2069e-34)
(0.597323 1.06802e-10 -1.81248e-31)
(0.597323 2.49522e-10 2.22007e-32)
(0.597323 3.57981e-10 2.26328e-31)
(0.597323 2.94043e-10 -6.17007e-31)
(0.597323 -5.84951e-12 1.94252e-31)
(0.597323 -4.98373e-10 1.46123e-31)
(0.597323 -9.81721e-10 -1.43722e-31)
(0.597323 -1.19912e-09 1.79426e-31)
(0.597323 -1.04127e-09 5.93029e-32)
(0.597323 -6.30817e-10 5.39244e-32)
(0.597323 -1.62818e-10 5.25303e-32)
(0.597323 2.24307e-10 -4.21483e-31)
(0.597323 4.97632e-10 2.33486e-32)
(0.597323 6.41773e-10 6.02007e-35)
(0.616104 7.57179e-10 2.17145e-30)
(0.616104 6.59193e-10 2.1874e-30)
(0.616104 4.58994e-10 -3.21265e-33)
(0.616104 2.96665e-10 -5.78119e-31)
(0.616104 1.18936e-10 -5.3028e-31)
(0.616104 5.99465e-11 -3.91315e-31)
(0.616104 1.1598e-10 -2.83848e-31)
(0.616104 2.63865e-10 -3.41063e-31)
(0.616104 3.82635e-10 4.17065e-31)
(0.616104 3.26757e-10 4.35585e-31)
(0.616104 2.12037e-11 2.34048e-31)
(0.616104 -4.97851e-10 3.50403e-31)
(0.616104 -1.02308e-09 2.59576e-31)
(0.616104 -1.28105e-09 1.97427e-31)
(0.616104 -1.14304e-09 4.52836e-31)
(0.616104 -7.21945e-10 2.63718e-31)
(0.616104 -2.16646e-10 1.07499e-31)
(0.616104 2.12855e-10 -8.0777e-32)
(0.616104 5.28834e-10 -3.39105e-31)
(0.616104 6.80584e-10 -2.5145e-35)
(0.634804 7.88816e-10 1.00169e-34)
(0.634804 7.03174e-10 -1.46413e-30)
(0.634804 5.09061e-10 -1.74614e-33)
(0.634804 3.4037e-10 -6.88338e-32)
(0.634804 1.48125e-10 -1.3734e-30)
(0.634804 7.60382e-11 -5.25602e-32)
(0.634804 1.26266e-10 -2.07923e-31)
(0.634804 2.77407e-10 -1.97115e-32)
(0.634804 4.05236e-10 -1.46999e-31)
(0.634804 3.58538e-10 1.73711e-31)
(0.634804 5.08775e-11 -4.34766e-31)
(0.634804 -4.91629e-10 -1.41491e-31)
(0.634804 -1.05682e-09 5.4284e-31)
(0.634804 -1.35842e-09 -4.57395e-31)
(0.634804 -1.24622e-09 -1.90103e-31)
(0.634804 -8.20529e-10 -1.66202e-31)
(0.634804 -2.79964e-10 -1.56854e-32)
(0.634804 1.93931e-10 1.70683e-31)
(0.634804 5.56199e-10 -5.35674e-35)
(0.634804 7.19561e-10 -9.00098e-31)
(0.653428 8.21708e-10 1.82009e-30)
(0.653428 7.47312e-10 -1.83292e-30)
(0.653428 5.60248e-10 0)
(0.653428 3.86592e-10 5.49024e-31)
(0.653428 1.80803e-10 5.93385e-31)
(0.653428 9.50774e-11 8.59838e-31)
(0.653428 1.37829e-10 -3.23314e-31)
(0.653428 2.90068e-10 1.84273e-32)
(0.653428 4.25305e-10 -1.89731e-31)
(0.653428 3.88599e-10 -1.03892e-31)
(0.653428 8.2627e-11 -5.73471e-32)
(0.653428 -4.7866e-10 -1.3153e-32)
(0.653428 -1.08235e-09 -6.0641e-31)
(0.653428 -1.42933e-09 -3.57855e-32)
(0.653428 -1.34892e-09 -7.13553e-31)
(0.653428 -9.2594e-10 -2.55669e-32)
(0.653428 -3.53432e-10 1.85074e-31)
(0.653428 1.66432e-10 5.26311e-32)
(0.653428 5.78152e-10 4.10259e-31)
(0.653428 7.57904e-10 -1.12511e-31)
(0.671977 8.55784e-10 2.00782e-30)
(0.671977 7.91614e-10 -1.61783e-33)
(0.671977 6.12335e-10 2.61955e-31)
(0.671977 4.35063e-10 0)
(0.671977 2.16937e-10 7.41688e-32)
(0.671977 1.17198e-10 -3.50329e-31)
(0.671977 1.50899e-10 3.64229e-32)
(0.671977 3.01746e-10 -1.43228e-31)
(0.671977 4.42501e-10 1.57245e-31)
(0.671977 4.16063e-10 -1.16107e-31)
(0.671977 1.15585e-10 4.5969e-31)
(0.671977 -4.58924e-10 -2.12391e-32)
(0.671977 -1.09814e-09 -3.41664e-32)
(0.671977 -1.49191e-09 3.95274e-32)
(0.671977 -1.44901e-09 2.70375e-49)
(0.671977 -1.03705e-09 3.29267e-32)
(0.671977 -4.37434e-10 -2.15953e-31)
(0.671977 1.29169e-10 -1.00819e-31)
(0.671977 5.92814e-10 4.94212e-31)
(0.671977 7.94774e-10 1.74008e-30)
(0.690454 8.9077e-10 -1.73182e-30)
(0.690454 8.36057e-10 -1.87704e-30)
(0.690454 6.65149e-10 2.37179e-32)
(0.690454 4.85515e-10 3.03917e-33)
(0.690454 2.56395e-10 -7.04288e-32)
(0.690454 1.42504e-10 -9.00451e-31)
(0.690454 1.65576e-10 2.59635e-31)
(0.690454 3.12572e-10 1.18195e-31)
(0.690454 4.56369e-10 -1.30458e-31)
(0.690454 4.40201e-10 -1.13177e-33)
(0.690454 1.48987e-10 -1.82355e-31)
(0.690454 -4.32814e-10 -8.50161e-33)
(0.690454 -1.10342e-09 2.01427e-31)
(0.690454 -1.54402e-09 -3.96874e-31)
(0.690454 -1.54411e-09 -5.31403e-31)
(0.690454 -1.15183e-09 -6.79058e-31)
(0.690454 -5.32056e-10 -3.47392e-32)
(0.690454 8.0789e-11 -1.59068e-33)
(0.690454 5.98279e-10 3.888e-31)
(0.690454 8.291e-10 -7.32915e-31)
(0.708861 9.25956e-10 -2.22323e-31)
(0.708861 8.80539e-10 7.28117e-31)
(0.708861 7.18551e-10 -1.11085e-31)
(0.708861 5.37694e-10 0)
(0.708861 2.98998e-10 6.82644e-32)
(0.708861 1.71026e-10 -1.42259e-49)
(0.708861 1.8202e-10 7.10458e-31)
(0.708861 3.22505e-10 1.31844e-31)
(0.708861 4.66769e-10 -1.39669e-31)
(0.708861 4.60275e-10 -3.25076e-32)
(0.708861 1.81749e-10 -2.13791e-32)
(0.708861 -4.00643e-10 1.17161e-31)
(0.708861 -1.09779e-09 -5.4503e-32)
(0.708861 -1.58325e-09 -4.04981e-31)
(0.708861 -1.63143e-09 5.27537e-31)
(0.708861 -1.26837e-09 -4.6666e-31)
(0.708861 -6.36843e-10 4.21322e-32)
(0.708861 2.00489e-11 -2.52426e-32)
(0.708861 5.94476e-10 2.76015e-31)
(0.708861 8.57746e-10 -2.53511e-31)
(0.727201 9.60162e-10 2.15755e-31)
(0.727201 9.24774e-10 3.49871e-30)
(0.727201 7.72448e-10 -2.91427e-32)
(0.727201 5.91361e-10 1.8072e-33)
(0.727201 3.44517e-10 -5.35198e-31)
(0.727201 2.02728e-10 3.69947e-31)
(0.727201 2.00292e-10 -3.17568e-31)
(0.727201 3.31703e-10 -1.04843e-34)
(0.727201 4.73562e-10 4.48482e-35)
(0.727201 4.75642e-10 5.41261e-32)
(0.727201 2.12713e-10 1.65979e-31)
(0.727201 -3.63172e-10 -5.02866e-32)
(0.727201 -1.07912e-09 -1.21995e-33)
(0.727201 -1.60875e-09 -4.69527e-31)
(0.727201 -1.709e-09 8.08879e-31)
(0.727201 -1.38386e-09 1.01459e-30)
(0.727201 -7.50687e-10 -4.17958e-31)
(0.727201 -5.41381e-11 -9.47015e-35)
(0.727201 5.78266e-10 -1.18847e-31)
(0.727201 8.80541e-10 2.38046e-30)
(0.745476 9.92152e-10 -1.80303e-30)
(0.745476 9.68372e-10 1.81206e-33)
(0.745476 8.26582e-10 3.90875e-33)
(0.745476 6.46292e-10 7.25035e-48)
(0.745476 3.92699e-10 4.33516e-31)
(0.745476 2.37471e-10 3.92665e-31)
(0.745476 2.20443e-10 -3.51055e-31)
(0.745476 3.40375e-10 -4.2585e-49)
(0.745476 4.76905e-10 1.39413e-34)
(0.745476 4.85793e-10 -5.43215e-32)
(0.745476 2.40718e-10 -4.1316e-48)
(0.745476 -3.21567e-10 2.27629e-32)
(0.745476 -1.0477e-09 1.65792e-34)
(0.745476 -1.61793e-09 6.67791e-31)
(0.745476 -1.77437e-09 -8.65622e-32)
(0.745476 -1.49521e-09 7.4197e-31)
(0.745476 -8.71943e-10 4.24602e-31)
(0.745476 -1.42413e-10 -1.46398e-31)
(0.745476 5.47032e-10 -1.75627e-31)
(0.745476 8.96272e-10 -2.08724e-30)
(0.763689 1.02046e-09 1.57783e-30)
(0.763689 1.01057e-09 -1.09682e-30)
(0.763689 8.80677e-10 -2.72478e-31)
(0.763689 7.02259e-10 0)
(0.763689 4.43279e-10 4.40683e-31)
(0.763689 2.75108e-10 5.11111e-34)
(0.763689 2.42508e-10 2.9876e-31)
(0.763689 3.48685e-10 -1.55428e-31)
(0.763689 4.7682e-10 1.60388e-49)
(0.763689 4.90546e-10 -6.63597e-32)
(0.763689 2.6466e-10 0)
(0.763689 -2.77028e-10 -4.52427e-33)
(0.763689 -1.00411e-09 -3.25514e-33)
(0.763689 -1.61214e-09 4.09061e-31)
(0.763689 -1.82193e-09 8.66527e-31)
(0.763689 -1.59896e-09 -7.3106e-31)
(0.763689 -9.9822e-10 6.38198e-32)
(0.763689 -2.44742e-10 1.97121e-31)
(0.763689 5.0032e-10 -1.19397e-32)
(0.763689 9.01293e-10 -1.18309e-30)
(0.781842 1.04146e-09 -1.37897e-30)
(0.781842 1.05004e-09 -2.41504e-30)
(0.781842 9.3432e-10 -2.63425e-32)
(0.781842 7.58999e-10 2.25802e-33)
(0.781842 4.95985e-10 0)
(0.781842 3.15408e-10 0)
(0.781842 2.66559e-10 -2.47007e-31)
(0.781842 3.56771e-10 -2.20026e-32)
(0.781842 4.73594e-10 -1.176e-31)
(0.781842 4.89568e-10 3.49177e-32)
(0.781842 2.83507e-10 -2.27114e-31)
(0.781842 -2.31289e-10 2.87796e-32)
(0.781842 -9.48869e-10 -2.42533e-32)
(0.781842 -1.58604e-09 -8.38959e-32)
(0.781842 -1.85336e-09 -2.36441e-33)
(0.781842 -1.69152e-09 -1.48056e-33)
(0.781842 -1.126e-09 -6.25924e-31)
(0.781842 -3.6053e-10 6.83437e-31)
(0.781842 4.36501e-10 7.51325e-32)
(0.781842 8.95171e-10 8.82048e-31)
(0.799937 1.05548e-09 -4.06342e-31)
(0.799937 1.08513e-09 -1.51025e-31)
(0.799937 9.8667e-10 5.81141e-31)
(0.799937 8.16157e-10 0)
(0.799937 5.50526e-10 -2.91476e-31)
(0.799937 3.58282e-10 1.2932e-33)
(0.799937 2.92364e-10 -3.34331e-31)
(0.799937 3.64873e-10 1.96912e-31)
(0.799937 4.6782e-10 -1.46396e-32)
(0.799937 4.83044e-10 3.59312e-33)
(0.799937 2.96469e-10 -2.37739e-31)
(0.799937 -1.86155e-10 -3.98774e-32)
(0.799937 -8.83378e-10 -1.05392e-32)
(0.799937 -1.54138e-09 -1.53887e-33)
(0.799937 -1.86576e-09 -6.00495e-31)
(0.799937 -1.76843e-09 7.95824e-31)
(0.799937 -1.25176e-09 5.95038e-31)
(0.799937 -4.87986e-10 3.02038e-48)
(0.799937 3.54293e-10 -3.22552e-32)
(0.799937 8.73411e-10 -6.70009e-31)
(0.817976 1.05903e-09 1.80978e-30)
(0.817976 1.11455e-09 1.34981e-30)
(0.817976 1.03664e-09 4.45927e-32)
(0.817976 8.73162e-10 3.79759e-32)
(0.817976 6.0658e-10 -3.14293e-32)
(0.817976 4.03377e-10 -2.39606e-31)
(0.817976 3.19885e-10 2.74062e-31)
(0.817976 3.73257e-10 -3.45591e-49)
(0.817976 4.59888e-10 2.34745e-31)
(0.817976 4.71553e-10 7.08799e-33)
(0.817976 3.029e-10 2.05833e-31)
(0.817976 -1.43354e-10 -4.11833e-33)
(0.817976 -8.09916e-10 -4.25875e-32)
(0.817976 -1.4781e-09 8.08949e-33)
(0.817976 -1.85511e-09 -5.73163e-32)
(0.817976 -1.82676e-09 -7.81778e-31)
(0.817976 -1.37102e-09 7.99965e-32)
(0.817976 -6.24221e-10 -4.54781e-31)
(0.817976 2.53223e-10 1.33639e-32)
(0.817976 8.34231e-10 5.25927e-31)
(0.835962 1.05027e-09 -1.72132e-31)
(0.835962 1.1348e-09 1.21596e-30)
(0.835962 1.08273e-09 -5.04411e-32)
(0.835962 9.29219e-10 1.31448e-32)
(0.835962 6.6368e-10 2.10057e-31)
(0.835962 4.50324e-10 -2.6288e-32)
(0.835962 3.49078e-10 -2.86974e-34)
(0.835962 3.82135e-10 -7.6996e-36)
(0.835962 4.50414e-10 1.27199e-31)