/*--------------------------------*- C++ -*----------------------------------*\
  =========                 |
  \\      /  F ield         | OpenFOAM: The Open Source CFD Toolbox
   \\    /   O peration     | Website:  https://openfoam.org
    \\  /    A nd           | Version:  6
     \\/     M anipulation  |
\*---------------------------------------------------------------------------*/
FoamFile
{
    version     2.0;
    format      ascii;
    class       volVectorField;
    location    "19.44";
    object      UMean;
}
// * * * * * * * * * * * * * * * * * * * * * * * * * * * * * * * * * * * * * //

dimensions      [0 1 -1 0 0 0 0];

internalField   nonuniform List<vector> 
3240
(
(0.000309374 2.46528e-13 7.90896e-32)
(0.000309374 -8.82065e-14 -7.91136e-32)
(0.000309374 -4.52565e-14 3.11393e-32)
(0.000309374 -1.06037e-13 -2.67289e-32)
(0.000309374 -4.55765e-14 -4.91446e-33)
(0.000309374 -1.92971e-14 -1.18892e-33)
(0.000309374 -1.06787e-14 -4.7237e-34)
(0.000309374 -9.68762e-15 -5.47763e-33)
(0.000309374 -1.39379e-14 -1.5976e-35)
(0.000309374 -1.90458e-14 1.55671e-32)
(0.000309374 -2.64626e-14 1.8888e-32)
(0.000309374 -3.5868e-14 -4.1018e-32)
(0.000309374 -4.58004e-14 6.11372e-36)
(0.000309374 -5.66388e-14 -6.26176e-36)
(0.000309374 -6.42597e-14 -3.84467e-32)
(0.000309374 -6.9987e-14 1.41491e-32)
(0.000309374 -6.30923e-14 8.71251e-33)
(0.000309374 -3.5088e-14 -1.84571e-32)
(0.000309374 7.28959e-14 -2.03023e-48)
(0.000309374 4.39524e-13 -2.48881e-31)
(0.000650959 2.0877e-12 6.66591e-31)
(0.000650959 -4.62603e-13 -8.68718e-32)
(0.000650959 -8.16337e-15 7.54057e-32)
(0.000650959 -8.27481e-13 -2.16142e-31)
(0.000650959 -4.71193e-13 -3.32893e-35)
(0.000650959 -3.37521e-13 4.2769e-35)
(0.000650959 -2.25125e-13 4.86007e-44)
(0.000650959 -2.0622e-13 4.2428e-32)
(0.000650959 -2.02113e-13 5.77547e-32)
(0.000650959 -2.25074e-13 7.57397e-32)
(0.000650959 -2.63816e-13 -7.14112e-44)
(0.00065096 -3.23995e-13 -1.86209e-31)
(0.00065096 -4.00748e-13 9.42965e-32)
(0.00065096 -4.69128e-13 9.89434e-36)
(0.00065096 -5.41311e-13 -2.47453e-35)
(0.00065096 -5.31806e-13 -1.61108e-43)
(0.00065096 -5.20064e-13 3.34129e-32)
(0.00065096 -1.35979e-13 -9.62612e-32)
(0.00065096 5.52071e-13 -2.11523e-34)
(0.00065096 3.50882e-12 -4.90429e-31)
(0.000902408 5.41398e-12 3.04454e-31)
(0.000902408 -1.2449e-12 1.27752e-34)
(0.000902408 -1.4947e-13 -9.94412e-32)
(0.000902408 -1.97538e-12 -9.30123e-41)
(0.000902408 -1.08974e-12 4.39728e-32)
(0.000902408 -8.42903e-13 4.78671e-32)
(0.000902408 -5.81624e-13 3.02827e-35)
(0.000902409 -5.86943e-13 5.40295e-32)
(0.000902409 -6.07845e-13 -1.86624e-35)
(0.000902409 -6.9659e-13 -1.45166e-35)
(0.000902409 -7.99371e-13 -2.78444e-31)
(0.000902409 -9.33747e-13 2.26969e-36)
(0.000902409 -1.09764e-12 -9.69101e-32)
(0.000902409 -1.22352e-12 0)
(0.000902409 -1.37425e-12 8.19919e-32)
(0.000902409 -1.27478e-12 -4.8026e-32)
(0.000902409 -1.21822e-12 0)
(0.00090241 -5.11224e-14 -1.3149e-31)
(0.000902409 1.52132e-12 0)
(0.000902409 8.8135e-12 4.02914e-31)
(0.00110629 1.01295e-11 -2.4285e-31)
(0.00110629 -2.18226e-12 -1.26593e-34)
(0.00110629 -2.86871e-13 -3.56587e-32)
(0.00110629 -3.49607e-12 1.08405e-34)
(0.00110629 -1.92026e-12 0)
(0.00110629 -1.57985e-12 5.38639e-32)
(0.00110629 -1.13177e-12 7.67522e-41)
(0.00110629 -1.19701e-12 2.575e-35)
(0.00110629 -1.26432e-12 -6.71668e-32)
(0.00110629 -1.45675e-12 -2.68171e-35)
(0.00110629 -1.64938e-12 8.8467e-32)
(0.00110629 -1.8775e-12 9.11546e-32)
(0.00110629 -2.14697e-12 2.97539e-40)
(0.00110629 -2.32665e-12 -1.06136e-35)
(0.00110629 -2.5644e-12 1.12526e-40)
(0.00110629 -2.28751e-12 2.64851e-35)
(0.00110629 -2.13113e-12 -7.43387e-33)
(0.00110629 2.66435e-13 1.55973e-31)
(0.00110629 2.99032e-12 1.95987e-34)
(0.00110629 1.61124e-11 -2.69223e-31)
(0.00127985 1.60255e-11 -1.99591e-31)
(0.00127985 -3.11729e-12 -7.69788e-32)
(0.00127985 -3.80941e-13 8.55523e-32)
(0.00127985 -5.28389e-12 5.75771e-32)
(0.00127985 -2.92221e-12 6.08165e-35)
(0.00127985 -2.54009e-12 3.74542e-35)
(0.00127985 -1.88043e-12 -4.07813e-44)
(0.00127985 -2.03728e-12 6.12875e-32)
(0.00127985 -2.16506e-12 -1.6266e-35)
(0.00127985 -2.49064e-12 1.24797e-35)
(0.00127985 -2.79165e-12 8.54022e-32)
(0.00127986 -3.12625e-12 -3.41931e-45)
(0.00127986 -3.51224e-12 7.08023e-36)
(0.00127986 -3.73435e-12 -1.43961e-49)
(0.00127986 -4.0572e-12 -1.47715e-43)
(0.00127986 -3.51215e-12 2.61643e-35)
(0.00127986 -3.19389e-12 6.16989e-35)
(0.00127986 8.47634e-13 6.52651e-35)
(0.00127986 4.91039e-12 -3.78392e-34)
(0.00127986 2.49623e-11 -1.78979e-31)
(0.00143203 2.29731e-11 1.67068e-31)
(0.00143203 -3.96168e-12 1.22936e-34)
(0.00143203 -4.1635e-13 2.1451e-35)
(0.00143203 -7.27691e-12 -5.24142e-35)
(0.00143203 -4.0745e-12 4.2575e-32)
(0.00143203 -3.7139e-12 -1.54413e-40)
(0.00143203 -2.82715e-12 -5.61975e-32)
(0.00143203 -3.10551e-12 2.32622e-35)
(0.00143203 -3.30413e-12 -1.53218e-35)
(0.00143203 -3.7865e-12 -1.16775e-35)
(0.00143203 -4.2102e-12 -1.66975e-31)
(0.00143203 -4.65992e-12 -2.00663e-40)
(0.00143203 -5.16842e-12 -7.7975e-32)
(0.00143203 -5.41757e-12 -1.08614e-35)
(0.00143203 -5.81554e-12 -1.13616e-40)
(0.00143203 -4.91207e-12 2.5801e-35)
(0.00143203 -4.3635e-12 -6.02081e-35)
(0.00143203 1.70463e-12 -1.86777e-31)
(0.00143203 7.24605e-12 -2.55766e-48)
(0.00143203 3.50903e-11 -1.46892e-34)
(0.0015681 3.08939e-11 1.365e-31)
(0.0015681 -4.66621e-12 5.87723e-53)
(0.0015681 -3.90619e-13 -3.2619e-32)
(0.0015681 -9.43101e-12 -3.51084e-32)
(0.0015681 -5.36066e-12 5.78436e-35)
(0.0015681 -5.0936e-12 6.91032e-32)
(0.0015681 -3.97156e-12 -4.44215e-50)
(0.0015681 -4.39963e-12 2.22203e-35)
(0.0015681 -4.67738e-12 -1.4161e-31)
(0.0015681 -5.33647e-12 1.56499e-31)
(0.0015681 -5.89372e-12 4.13401e-36)
(0.0015681 -6.46461e-12 2.82622e-37)
(0.0015681 -7.09809e-12 7.38506e-32)
(0.0015681 -7.35563e-12 -1.08938e-35)
(0.0015681 -7.81303e-12 -9.45282e-41)
(0.0015681 -6.46155e-12 -4.71723e-33)
(0.0015681 -5.6114e-12 -4.96243e-32)
(0.0015681 2.84119e-12 3.94251e-31)
(0.0015681 9.96822e-12 -1.99365e-31)
(0.0015681 4.63212e-11 6.30289e-32)
(0.0016915 3.97222e-11 -1.05916e-31)
(0.0016915 -5.19489e-12 1.44362e-31)
(0.0016915 -3.03066e-13 8.64645e-33)
(0.0016915 -1.17113e-11 -2.6998e-32)
(0.0016915 -6.7664e-12 -4.35898e-32)
(0.0016915 -6.67175e-12 -7.33092e-32)
(0.0016915 -5.31134e-12 4.25097e-50)
(0.0016915 -5.91659e-12 -7.04186e-32)
(0.0016915 -6.27994e-12 1.37395e-35)
(0.0016915 -7.13242e-12 1.03379e-35)
(0.00169151 -7.83175e-12 7.97788e-32)
(0.00169151 -8.52726e-12 -1.55658e-31)
(0.00169151 -9.28512e-12 -7.6758e-50)
(0.00169151 -9.52969e-12 5.2695e-32)
(0.00169151 -1.00261e-11 -3.17602e-32)
(0.00169151 -8.13853e-12 -1.36471e-32)
(0.00169151 -6.91467e-12 1.1467e-34)
(0.00169151 4.2555e-12 -4.1081e-31)
(0.00169151 1.30499e-11 -1.71476e-34)
(0.00169151 5.85132e-11 2.76304e-34)
(0.00180462 4.93951e-11 -7.45433e-32)
(0.00180462 -5.52171e-12 1.63037e-31)
(0.00180462 -1.56664e-13 -2.35542e-35)
(0.00180462 -1.40872e-11 -2.19846e-32)
(0.00180462 -8.27906e-12 -4.38696e-32)
(0.00180462 -8.43958e-12 -7.63978e-32)
(0.00180462 -6.8429e-12 -6.76498e-32)
(0.00180462 -7.65155e-12 -1.44574e-31)
(0.00180462 -8.10554e-12 7.23237e-32)
(0.00180462 -9.16579e-12 -2.30951e-31)
(0.00180462 -1.00131e-11 -3.29485e-36)
(0.00180462 -1.08347e-11 7.49122e-32)
(0.00180462 -1.17135e-11 -6.567e-32)
(0.00180462 -1.19222e-11 -4.73406e-32)
(0.00180462 -1.24334e-11 -2.4526e-32)
(0.00180462 -9.92338e-12 2.18494e-32)
(0.00180462 -8.25402e-12 -5.59587e-35)
(0.00180462 5.94266e-12 -2.1217e-31)
(0.00180462 1.64633e-11 2.07875e-31)
(0.00180462 7.15433e-11 6.43923e-41)
(0.00190917 5.98536e-11 -4.15098e-32)
(0.00190917 -5.62781e-12 -3.63471e-31)
(0.00190917 4.98178e-14 -2.00984e-41)
(0.00190917 -1.65355e-11 2.12491e-32)
(0.00190917 -9.88678e-12 2.69343e-35)
(0.00190917 -1.03877e-11 7.77397e-32)
(0.00190918 -8.56116e-12 6.95476e-32)
(0.00190918 -9.59936e-12 7.33376e-32)
(0.00190918 -1.01484e-11 1.73836e-40)
(0.00190918 -1.14278e-11 7.59289e-32)
(0.00190918 -1.24273e-11 -7.56482e-32)
(0.00190918 -1.33742e-11 1.4397e-31)
(0.00190918 -1.43681e-11 -6.15454e-32)
(0.00190918 -1.45157e-11 2.03441e-40)
(0.00190918 -1.50144e-11 -1.76463e-32)
(0.00190918 -1.1798e-11 2.91298e-32)
(0.00190918 -9.61265e-12 7.89656e-32)
(0.00190918 7.8954e-12 2.17519e-31)
(0.00190918 2.01814e-11 0)
(0.00190918 8.53046e-11 -6.50695e-32)
(0.00200647 7.10382e-11 1.54092e-34)
(0.00200647 -5.50081e-12 -2.04603e-31)
(0.00200647 3.09446e-13 -1.68292e-32)
(0.00200647 -1.90496e-11 3.78806e-32)
(0.00200647 -1.15806e-11 4.50784e-32)
(0.00200647 -1.24993e-11 1.62228e-31)
(0.00200647 -1.04563e-11 1.462e-31)
(0.00200648 -1.17486e-11 1.51369e-31)
(0.00200648 -1.23978e-11 -3.51045e-44)
(0.00200648 -1.3907e-11 1.51325e-31)
(0.00200648 -1.5062e-11 7.42043e-32)
(0.00200648 -1.61327e-11 6.96949e-32)
(0.00200648 -1.72339e-11 5.80475e-32)
(0.00200648 -1.7295e-11 7.61567e-32)
(0.00200648 -1.77501e-11 1.13263e-32)
(0.00200648 -1.3748e-11 0)
(0.00200648 -1.09747e-11 -8.80064e-32)
(0.00200648 1.01034e-11 -2.20962e-31)
(0.00200648 2.41807e-11 -2.22846e-31)
(0.00200648 9.97047e-11 -1.26305e-34)
(0.00209753 8.29048e-11 -3.33849e-32)
(0.00209753 -5.11085e-12 1.06809e-31)
(0.00209753 6.32893e-13 2.67859e-35)
(0.00209753 -2.15609e-11 1.52437e-32)
(0.00209753 -1.33401e-11 6.25934e-32)
(0.00209753 -1.47993e-11 3.9013e-32)
(0.00209753 -1.25449e-11 -2.30034e-35)
(0.00209753 -1.41134e-11 -5.23735e-32)
(0.00209753 -1.48597e-11 -3.44062e-32)
(0.00209753 -1.6605e-11 9.3721e-36)
(0.00209753 -1.79136e-11 8.23162e-32)
(0.00209753 -1.91031e-11 3.10181e-32)
(0.00209753 -2.03014e-11 6.15989e-32)
(0.00209753 -2.02468e-11 0)
(0.00209753 -2.06274e-11 2.43717e-33)
(0.00209753 -1.57584e-11 -2.72478e-32)
(0.00209753 -1.2334e-11 -1.53933e-31)
(0.00209753 1.25596e-11 6.11091e-35)
(0.00209753 2.84631e-11 -2.69433e-31)
(0.00209753 1.14658e-10 9.2583e-32)
(0.00220868 9.90842e-11 -4.85636e-34)
(0.00220868 -4.21685e-12 -2.05526e-31)
(0.00220868 1.08626e-12 -5.5732e-32)
(0.00220868 -2.49212e-11 -6.55722e-32)
(0.00220868 -1.5743e-11 1.42659e-31)
(0.00220868 -1.7936e-11 -1.77801e-31)
(0.00220868 -1.54546e-11 -6.68243e-35)
(0.00220868 -1.74099e-11 -6.15001e-32)
(0.00220868 -1.83009e-11 1.53312e-31)
(0.00220868 -2.03625e-11 0)
(0.00220868 -2.1875e-11 8.93662e-32)
(0.00220868 -2.32151e-11 -1.29869e-31)
(0.00220868 -2.45224e-11 0)
(0.00220868 -2.42895e-11 3.474e-32)
(0.00220868 -2.45176e-11 6.85677e-33)
(0.00220868 -1.84454e-11 -1.01895e-31)
(0.00220868 -1.40524e-11 2.21982e-31)
(0.00220868 1.60254e-11 2.87835e-31)
(0.00220868 3.439e-11 0)
(0.00220868 1.34677e-10 3.81863e-31)
(0.00233749 1.21011e-10 -1.18427e-33)
(0.00233749 -2.2464e-12 5.68336e-32)
(0.00233749 1.83166e-12 -1.30489e-31)
(0.00233749 -2.91352e-11 5.739e-32)
(0.00233749 -1.89318e-11 -1.65669e-31)
(0.00233749 -2.234e-11 0)
(0.00233749 -1.96227e-11 0)
(0.00233749 -2.2111e-11 1.52707e-32)
(0.00233749 -2.31826e-11 -2.15119e-31)
(0.00233749 -2.56509e-11 -1.04608e-31)
(0.00233749 -2.74137e-11 -8.4253e-32)
(0.00233749 -2.89255e-11 -8.48095e-32)
(0.00233749 -3.03319e-11 -6.18314e-32)
(0.00233749 -2.97993e-11 -2.43874e-32)
(0.00233749 -2.97304e-11 1.75405e-32)
(0.00233749 -2.1957e-11 8.71644e-32)
(0.00233749 -1.6144e-11 3.42115e-31)
(0.00233749 2.09887e-11 3.81692e-31)
(0.00233749 4.2627e-11 7.38495e-31)
(0.00233749 1.61064e-10 -6.7208e-31)
(0.00246307 1.45567e-10 -3.26675e-31)
(0.00246307 8.08244e-13 -6.5517e-32)
(0.00246307 2.91881e-12 5.48886e-31)
(0.00246307 -3.37288e-11 -2.02405e-34)
(0.00246307 -2.24955e-11 -1.02859e-31)
(0.00246307 -2.73657e-11 -1.39013e-31)
(0.00246307 -2.44907e-11 -1.25273e-31)
(0.00246307 -2.76073e-11 -1.63643e-32)
(0.00246307 -2.88861e-11 8.28685e-32)
(0.00246307 -3.17998e-11 -1.40936e-32)
(0.00246308 -3.38173e-11 -1.22583e-31)
(0.00246308 -3.54908e-11 -1.08327e-32)
(0.00246308 -3.69527e-11 -7.3561e-33)
(0.00246308 -3.60213e-11 -2.38426e-32)
(0.00246308 -3.55132e-11 -5.81304e-32)
(0.00246308 -2.57526e-11 2.24566e-31)
(0.00246308 -1.82173e-11 5.13169e-32)
(0.00246308 2.68604e-11 -3.60868e-31)
(0.00246308 5.20416e-11 4.99699e-31)
(0.00246308 1.89943e-10 -5.33026e-31)
(0.00258585 1.72778e-10 -6.05491e-32)
(0.00258585 5.19561e-12 7.54686e-32)
(0.00258585 4.53185e-12 1.03168e-31)
(0.00258585 -3.86153e-11 4.54338e-34)
(0.00258585 -2.64425e-11 1.09216e-31)
(0.00258585 -3.31059e-11 -1.94564e-32)
(0.00258585 -3.01554e-11 -1.72118e-32)
(0.00258585 -3.40067e-11 1.47044e-31)
(0.00258585 -3.55107e-11 2.81498e-31)
(0.00258585 -3.88958e-11 1.24519e-31)
(0.00258586 -4.11648e-11 1.09706e-31)
(0.00258586 -4.29743e-11 1.69399e-31)
(0.00258586 -4.44361e-11 6.49335e-33)
(0.00258586 -4.29811e-11 1.03982e-32)
(0.00258586 -4.18749e-11 -1.09771e-31)
(0.00258586 -2.97984e-11 -1.07508e-31)
(0.00258586 -2.02406e-11 -5.04006e-31)
(0.00258586 3.37446e-11 -4.32992e-31)
(0.00258586 6.26922e-11 -9.01545e-31)
(0.00258586 2.2126e-10 1.09676e-30)
(0.00270618 2.02533e-10 6.67139e-31)
(0.00270618 1.11727e-11 -8.43382e-32)
(0.00270618 6.94435e-12 -8.33733e-31)
(0.00270618 -4.38312e-11 9.57071e-32)
(0.00270618 -3.08035e-11 1.67073e-32)
(0.00270618 -3.95873e-11 2.07542e-32)
(0.00270618 -3.66689e-11 1.82158e-32)
(0.00270618 -4.13756e-11 -1.36392e-31)
(0.00270618 -4.31269e-11 -1.3904e-31)
(0.00270618 -4.70102e-11 1.12467e-31)
(0.00270618 -4.95225e-11 1.04043e-35)
(0.00270618 -5.14306e-11 8.58461e-32)
(0.00270618 -5.28196e-11 -5.50816e-33)
(0.00270618 -5.06982e-11 -1.128e-33)
(0.00270618 -4.88037e-11 6.93806e-32)
(0.00270618 -3.40604e-11 -4.67812e-31)
(0.00270618 -2.21443e-11 -2.50645e-31)
(0.00270618 4.17152e-11 0)
(0.00270618 7.46292e-11 -9.6063e-31)
(0.00270618 2.5489e-10 1.30412e-30)
(0.00282434 2.34664e-10 -1.86551e-33)
(0.00282434 1.90075e-11 9.20113e-32)
(0.00282434 1.04806e-11 4.87431e-31)
(0.00282434 -4.93015e-11 1.96339e-31)
(0.00282434 -3.56246e-11 -1.52767e-31)
(0.00282434 -4.68581e-11 -1.88318e-31)
(0.00282434 -4.40996e-11 -1.65207e-31)
(0.00282434 -4.97899e-11 1.23665e-31)
(0.00282434 -5.18127e-11 1.34006e-34)
(0.00282434 -5.62203e-11 1.5097e-32)
(0.00282435 -5.8955e-11 0)
(0.00282435 -6.09131e-11 3.32914e-50)
(0.00282435 -6.21359e-11 4.53197e-33)
(0.00282435 -5.91831e-11 -1.57172e-33)
(0.00282435 -5.62815e-11 7.73199e-32)
(0.00282435 -3.8495e-11 1.42063e-31)
(0.00282435 -2.38583e-11 2.42924e-31)
(0.00282435 5.08504e-11 4.25153e-31)
(0.00282435 8.78916e-11 4.12322e-31)
(0.00282435 2.90634e-10 9.52867e-32)
(0.00294059 2.68905e-10 1.00967e-48)
(0.00294059 2.89063e-11 -8.45987e-31)
(0.00294059 1.55038e-11 -4.84872e-31)
(0.00294059 -5.49108e-11 -6.80746e-32)
(0.00294059 -4.08987e-11 -3.64321e-34)
(0.00294059 -5.49453e-11 1.69138e-31)
(0.00294059 -5.25037e-11 1.51774e-31)
(0.00294059 -5.93168e-11 1.86066e-31)
(0.00294059 -6.16425e-11 -1.30438e-31)
(0.00294059 -6.65989e-11 -2.50226e-31)
(0.00294059 -6.95198e-11 1.13752e-35)
(0.00294059 -7.14678e-11 -6.77603e-32)
(0.00294059 -7.24086e-11 -3.39366e-33)
(0.00294059 -6.84364e-11 7.275e-32)
(0.0029406 -6.42749e-11 1.06649e-31)
(0.0029406 -4.30429e-11 4.17682e-31)
(0.0029406 -2.53e-11 6.97222e-31)
(0.0029406 6.12314e-11 5.03217e-31)
(0.00294059 1.02501e-10 1.12671e-30)
(0.00294059 3.28216e-10 -2.57026e-30)
(0.00305513 3.04958e-10 2.28833e-33)
(0.00305513 4.11996e-11 1.58491e-30)
(0.00305513 2.22116e-11 -5.63945e-31)
(0.00305513 -6.04524e-11 -1.19424e-31)
(0.00305513 -4.66265e-11 1.22715e-31)
(0.00305513 -6.38474e-11 1.86807e-31)
(0.00305513 -6.19043e-11 1.70663e-31)
(0.00305513 -7.00247e-11 -1.70779e-31)
(0.00305513 -7.26906e-11 1.15727e-31)
(0.00305513 -7.82081e-11 -2.53027e-31)
(0.00305514 -8.12706e-11 -9.1993e-32)
(0.00305514 -8.31286e-11 -1.34484e-31)
(0.00305514 -8.36506e-11 3.81596e-32)
(0.00305514 -7.8446e-11 4.39927e-32)
(0.00305514 -7.27378e-11 -1.11679e-31)
(0.00305514 -4.76395e-11 2.05329e-31)
(0.00305514 -2.6379e-11 0)
(0.00305514 7.29218e-11 4.62392e-31)
(0.00305514 1.18446e-10 5.19942e-31)
(0.00305514 3.67271e-10 -1.17602e-30)
(0.00316815 3.42455e-10 1.05057e-30)
(0.00316815 5.57581e-11 1.85003e-30)
(0.00316815 3.11052e-11 4.82179e-31)
(0.00316815 -6.55555e-11 7.17405e-49)
(0.00316815 -5.27519e-11 1.23876e-31)
(0.00316815 -7.35834e-11 -1.59061e-31)
(0.00316815 -7.23177e-11 -1.45962e-31)
(0.00316815 -8.19416e-11 -1.51656e-31)
(0.00316815 -8.50146e-11 1.70044e-31)
(0.00316815 -9.11e-11 1.02455e-31)
(0.00316815 -9.42589e-11 -1.01645e-31)
(0.00316815 -9.59213e-11 -7.62188e-33)
(0.00316815 -9.58621e-11 1.19938e-33)
(0.00316815 -8.91822e-11 -5.26229e-32)
(0.00316815 -8.16169e-11 -1.45561e-31)
(0.00316816 -5.22034e-11 -1.95602e-31)
(0.00316816 -2.69832e-11 -3.66654e-31)
(0.00316816 8.59866e-11 -8.90447e-31)
(0.00316815 1.35678e-10 -4.68128e-31)
(0.00316815 4.07311e-10 3.27232e-30)
(0.0032798 3.81028e-10 1.25956e-30)
(0.0032798 7.26994e-11 -1.6458e-30)
(0.0032798 4.21309e-11 5.80294e-32)
(0.0032798 -6.97809e-11 4.6043e-32)
(0.0032798 -5.899e-11 -8.345e-32)
(0.0032798 -8.41077e-11 -1.7178e-31)
(0.0032798 -8.37953e-11 -1.60095e-31)
(0.0032798 -9.51055e-11 -1.96542e-32)
(0.0032798 -9.86388e-11 -1.51564e-31)
(0.0032798 -1.0532e-10 3.04758e-32)
(0.0032798 -1.08509e-10 8.70893e-32)
(0.0032798 -1.09861e-10 -4.50912e-32)
(0.0032798 -1.09023e-10 -7.40148e-35)
(0.00327981 -1.00606e-10 5.8624e-32)
(0.00327981 -9.0838e-11 -1.46301e-31)
(0.00327981 -5.66353e-11 -6.42342e-32)
(0.00327981 -2.70039e-11 -5.24163e-32)
(0.00327981 1.00469e-10 -6.7835e-31)
(0.0032798 1.54121e-10 -7.01314e-31)
(0.0032798 4.47763e-10 3.05029e-31)
(0.00339022 4.20333e-10 -1.15677e-30)
(0.00339022 9.20257e-11 -1.04409e-30)
(0.00339022 5.52538e-11 -4.92027e-32)
(0.00339022 -7.29238e-11 1.04438e-32)
(0.00339022 -6.49888e-11 3.96081e-32)
(0.00339022 -9.51973e-11 1.34668e-31)
(0.00339022 -9.62405e-11 1.34632e-31)
(0.00339022 -1.09514e-10 1.97047e-32)
(0.00339023 -1.13619e-10 1.31883e-31)
(0.00339023 -1.20904e-10 -1.4434e-31)
(0.00339023 -1.24037e-10 9.3741e-32)
(0.00339023 -1.2494e-10 -5.71047e-32)
(0.00339023 -1.23105e-10 -7.70802e-33)
(0.00339023 -1.12657e-10 9.09085e-33)
(0.00339023 -1.00311e-10 -1.85104e-31)
(0.00339023 -6.08323e-11 3.30994e-31)
(0.00339023 -2.63122e-11 5.48988e-32)
(0.00339023 1.16392e-10 6.19728e-31)
(0.00339023 1.73639e-10 6.48105e-31)
(0.00339023 4.87937e-10 -2.8874e-30)
(0.00349954 4.60008e-10 -1.33538e-30)
(0.00349954 1.13744e-10 9.56622e-31)
(0.00349954 7.02249e-11 3.72621e-32)
(0.00349954 -7.45677e-11 -1.02127e-31)
(0.00349954 -7.05143e-11 1.38843e-32)
(0.00349954 -1.06631e-10 1.39235e-32)
(0.00349954 -1.09534e-10 1.55224e-32)
(0.00349954 -1.2511e-10 -1.61439e-31)
(0.00349954 -1.29925e-10 1.68042e-32)
(0.00349955 -1.37852e-10 2.37107e-31)
(0.00349955 -1.40844e-10 -6.10401e-50)
(0.00349955 -1.41143e-10 8.08494e-32)
(0.00349955 -1.38063e-10 -3.97057e-32)
(0.00349955 -1.25256e-10 -9.50095e-32)
(0.00349955 -1.09934e-10 1.81115e-31)
(0.00349955 -6.46776e-11 -3.12357e-31)
(0.00349955 -2.47714e-11 -5.92462e-32)
(0.00349955 1.33751e-10 -1.04179e-30)
(0.00349955 1.94047e-10 1.61978e-33)
(0.00349955 5.27054e-10 0)
(0.00360787 4.99715e-10 -1.1885e-30)
(0.00360787 1.37931e-10 1.26803e-33)
(0.00360787 8.6711e-11 -2.51593e-32)
(0.00360787 -7.46839e-11 3.03011e-51)
(0.00360787 -7.51261e-11 1.09337e-33)
(0.00360787 -1.18145e-10 -1.10487e-32)
(0.00360787 -1.235e-10 8.5981e-32)
(0.00360787 -1.41788e-10 1.31741e-31)
(0.00360787 -1.47515e-10 -1.35414e-31)
(0.00360787 -1.56134e-10 1.38705e-32)
(0.00360787 -1.58909e-10 0)
(0.00360787 -1.58428e-10 3.38449e-32)
(0.00360787 -1.53818e-10 5.32956e-32)
(0.00360787 -1.38309e-10 9.75979e-32)
(0.00360787 -1.19603e-10 4.21738e-31)
(0.00360787 -6.8039e-11 -2.87788e-31)
(0.00360787 -2.22401e-11 5.27996e-31)
(0.00360787 1.52505e-10 -6.32264e-32)
(0.00360787 2.15105e-10 3.499e-33)
(0.00360787 5.64272e-10 0)
(0.00371531 5.39163e-10 -1.59565e-31)
(0.0037153 1.64831e-10 -9.46248e-31)
(0.0037153 1.04339e-10 1.43848e-32)
(0.0037153 -7.33682e-11 -1.42424e-32)
(0.0037153 -7.86645e-11 -4.2014e-34)
(0.0037153 -1.29353e-10 7.58641e-33)
(0.0037153 -1.37892e-10 1.96795e-32)
(0.0037153 -1.59392e-10 1.29932e-31)
(0.00371531 -1.66303e-10 -1.07966e-31)
(0.00371531 -1.75694e-10 -1.27084e-32)
(0.00371531 -1.78172e-10 2.08928e-35)
(0.00371531 -1.76726e-10 -4.16296e-32)
(0.00371531 -1.70282e-10 8.2616e-32)
(0.00371531 -1.51706e-10 1.45935e-32)
(0.00371531 -1.29186e-10 2.74298e-32)
(0.00371531 -7.07802e-11 2.58053e-31)
(0.00371531 -1.85818e-11 -7.32932e-48)
(0.00371531 1.7256e-10 5.2862e-31)
(0.00371531 2.36486e-10 1.88156e-33)
(0.00371531 5.98717e-10 4.38728e-33)
(0.00382194 5.78024e-10 1.54598e-31)
(0.00382194 1.94766e-10 8.88796e-31)
(0.00382194 1.22971e-10 -6.85529e-33)
(0.00382194 -7.09153e-11 6.51222e-33)
(0.00382194 -8.10666e-11 -4.33964e-32)
(0.00382194 -1.40036e-10 -5.0437e-32)
(0.00382194 -1.52416e-10 -1.15757e-31)
(0.00382194 -1.77711e-10 -9.53745e-32)
(0.00382194 -1.86141e-10 -1.21522e-32)
(0.00382194 -1.9643e-10 -7.33904e-32)
(0.00382194 -1.98544e-10 -4.78508e-35)
(0.00382194 -1.95943e-10 -1.32261e-32)
(0.00382194 -1.87349e-10 -1.2558e-34)
(0.00382195 -1.65322e-10 -2.65672e-31)
(0.00382195 -1.38546e-10 -2.57012e-31)
(0.00382195 -7.27646e-11 8.01497e-32)
(0.00382195 -1.36736e-11 -4.99688e-31)
(0.00382195 1.93766e-10 -4.46889e-31)
(0.00382194 2.57823e-10 2.01497e-33)
(0.00382194 6.29511e-10 1.6608e-30)
(0.00392787 6.15929e-10 -1.32994e-30)
(0.00392787 2.28228e-10 2.48688e-30)
(0.00392787 1.42648e-10 3.02413e-32)
(0.00392787 -6.75954e-11 -1.22815e-31)
(0.00392787 -8.26121e-11 -7.30801e-32)
(0.00392787 -1.50089e-10 0)
(0.00392787 -1.66832e-10 -3.18366e-32)
(0.00392787 -1.96476e-10 -1.58181e-31)
(0.00392787 -2.06827e-10 8.44964e-32)
(0.00392787 -2.18179e-10 5.10357e-32)
(0.00392787 -2.19893e-10 2.76744e-35)
(0.00392787 -2.15957e-10 -3.03784e-33)
(0.00392787 -2.04879e-10 -5.92034e-32)
(0.00392787 -1.79011e-10 -1.55982e-31)
(0.00392787 -1.47549e-10 -2.38705e-31)
(0.00392787 -7.38462e-11 -1.0069e-30)
(0.00392787 -7.41644e-12 -1.07729e-30)
(0.00392787 2.15898e-10 -5.44822e-32)
(0.00392787 2.78663e-10 -6.05274e-31)
(0.00392787 6.55796e-10 1.95439e-30)
(0.00403317 6.52365e-10 1.16878e-30)
(0.00403317 2.65746e-10 -3.48455e-30)
(0.00403317 1.63723e-10 3.61973e-34)
(0.00403317 -6.35913e-11 0)
(0.00403317 -8.36331e-11 -1.12831e-31)
(0.00403317 -1.5962e-10 -5.64559e-34)
(0.00403317 -1.80974e-10 1.63596e-32)
(0.00403317 -2.15458e-10 -6.24844e-33)
(0.00403317 -2.2813e-10 -5.41254e-32)
(0.00403317 -2.40737e-10 1.22228e-31)
(0.00403317 -2.42036e-10 -2.35588e-32)
(0.00403317 -2.36599e-10 1.02922e-32)
(0.00403317 -2.22709e-10 -1.54652e-31)
(0.00403317 -1.92621e-10 3.00656e-31)
(0.00403317 -1.56043e-10 2.1409e-31)
(0.00403317 -7.39027e-11 2.70838e-31)
(0.00403317 2.447e-13 4.39696e-31)
(0.00403317 2.38678e-10 1.23318e-30)
(0.00403317 2.98505e-10 -7.75322e-32)
(0.00403317 6.76797e-10 5.26405e-33)
(0.00413792 6.8708e-10 1.34188e-30)
(0.00413792 3.07385e-10 -4.05808e-30)
(0.00413792 1.86777e-10 -7.84617e-34)
(0.00413792 -5.89251e-11 1.68973e-31)
(0.00413792 -8.45199e-11 1.3201e-31)
(0.00413792 -1.68933e-10 8.65857e-32)
(0.00413792 -1.94852e-10 2.06268e-32)
(0.00413792 -2.34375e-10 6.60313e-32)
(0.00413792 -2.4975e-10 -6.38173e-32)
(0.00413792 -2.63845e-10 -6.36422e-32)
(0.00413792 -2.64765e-10 -7.50652e-33)
(0.00413792 -2.5765e-10 6.97673e-32)
(0.00413792 -2.40652e-10 1.63404e-31)
(0.00413792 -2.05981e-10 2.06221e-31)
(0.00413792 -1.63868e-10 8.23854e-31)
(0.00413792 -7.28282e-11 7.08047e-31)
(0.00413792 9.31004e-12 6.30302e-31)
(0.00413792 2.61745e-10 4.62274e-31)
(0.00413792 3.16778e-10 6.30201e-31)
(0.00413792 6.91834e-10 1.8492e-33)
(0.0042422 7.19537e-10 2.47911e-33)
(0.0042422 3.53562e-10 2.38819e-30)
(0.0042422 2.12401e-10 -4.30776e-34)
(0.0042422 -5.30973e-11 2.17165e-32)
(0.0042422 -8.56574e-11 3.97728e-31)
(0.0042422 -1.78508e-10 1.39956e-32)
(0.0042422 -2.08676e-10 2.05901e-32)
(0.0042422 -2.53188e-10 1.71079e-33)
(0.0042422 -2.7135e-10 4.40895e-33)
(0.0042422 -2.87172e-10 -6.27403e-33)
(0.0042422 -2.87766e-10 -2.88954e-32)
(0.0042422 -2.78866e-10 -1.01935e-31)
(0.0042422 -2.58494e-10 2.47555e-31)
(0.0042422 -2.18884e-10 -3.73313e-31)
(0.0042422 -1.70859e-10 -2.22915e-31)
(0.0042422 -7.05466e-11 -3.12758e-31)
(0.0042422 1.97235e-11 -6.38555e-32)
(0.0042422 2.84664e-10 -1.40877e-30)
(0.0042422 3.32894e-10 -2.5357e-33)
(0.0042422 7.00305e-10 -1.84941e-30)
(0.00434609 7.49117e-10 1.25042e-30)
(0.00434609 4.03931e-10 2.5958e-30)
(0.00434609 2.41354e-10 0)
(0.00434609 -4.54518e-11 -1.28523e-31)
(0.00434608 -8.69325e-11 -1.77973e-31)
(0.00434609 -1.88458e-10 -2.61337e-31)
(0.00434609 -2.22718e-10 4.39855e-32)
(0.00434609 -2.71972e-10 -1.71593e-33)
(0.00434609 -2.92962e-10 -1.59604e-32)
(0.00434609 -3.10411e-10 -1.73112e-32)
(0.00434609 -3.10654e-10 -9.99755e-33)
(0.00434609 -2.99894e-10 -7.94572e-32)
(0.00434609 -2.75951e-10 -2.56705e-31)
(0.00434609 -2.31152e-10 -2.46843e-32)
(0.00434609 -1.7686e-10 -5.87797e-31)
(0.00434609 -6.7017e-11 -3.99998e-32)
(0.00434609 3.13411e-11 5.29685e-31)
(0.00434609 3.06934e-10 -4.46781e-31)
(0.00434609 3.46228e-10 -4.62507e-31)
(0.00434609 7.01574e-10 -2.45672e-31)
(0.00444965 7.75187e-10 1.48091e-30)
(0.00444965 4.57759e-10 -1.86671e-33)
(0.00444965 2.73873e-10 2.04137e-31)
(0.00444965 -3.50255e-11 0)
(0.00444965 -8.79665e-11 -2.06092e-32)
(0.00444965 -1.99007e-10 9.96953e-32)
(0.00444965 -2.37238e-10 -3.67772e-33)
(0.00444965 -2.90642e-10 6.27076e-33)
(0.00444965 -3.14178e-10 3.20241e-32)
(0.00444965 -3.33328e-10 -7.84859e-32)
(0.00444965 -3.33197e-10 1.36341e-31)
(0.00444965 -3.20424e-10 -1.87381e-31)
(0.00444965 -2.92764e-10 -1.78327e-32)
(0.00444965 -2.42536e-10 2.55765e-32)
(0.00444965 -1.81697e-10 1.89429e-49)
(0.00444965 -6.22385e-11 4.05379e-32)
(0.00444965 4.39353e-11 -4.53543e-31)
(0.00444965 3.28043e-10 9.88242e-31)
(0.00444965 3.56128e-10 -4.64843e-31)
(0.00444965 6.95271e-10 3.98698e-30)
(0.00455295 7.96731e-10 -1.38023e-30)
(0.00455295 5.13989e-10 1.78357e-30)
(0.00455295 3.09908e-10 2.768e-32)
(0.00455295 -2.10814e-11 1.89948e-33)
(0.00455295 -8.77082e-11 1.33236e-32)
(0.00455295 -2.0977e-10 1.90336e-31)
(0.00455295 -2.52075e-10 -1.94268e-32)
(0.00455295 -3.09584e-10 2.35501e-33)
(0.00455295 -3.34947e-10 -4.25872e-32)
(0.00455295 -3.55544e-10 -7.27013e-33)
(0.00455295 -3.54912e-10 -8.06515e-32)
(0.00455295 -3.40062e-10 -3.01705e-32)
(0.00455295 -3.08598e-10 1.7378e-31)
(0.00455295 -2.52797e-10 -2.28208e-31)
(0.00455295 -1.85229e-10 -2.65003e-31)
(0.00455295 -5.62874e-11 -6.35495e-31)
(0.00455295 5.71861e-11 -5.56611e-32)
(0.00455295 3.47442e-10 3.7058e-32)
(0.00455295 3.61989e-10 -3.56116e-31)
(0.00455295 6.81341e-10 -1.60233e-30)
(0.00465607 8.12733e-10 -1.93671e-31)
(0.00465607 5.70927e-10 -5.23932e-31)
(0.00465606 3.48689e-10 -1.9059e-31)
(0.00465606 -2.89664e-12 0)
(0.00465606 -8.49695e-11 -2.55528e-33)
(0.00465606 -2.19757e-10 -3.89234e-49)
(0.00465606 -2.67138e-10 9.0172e-33)
(0.00465606 -3.28202e-10 3.08408e-32)
(0.00465607 -3.55489e-10 -6.48227e-32)
(0.00465607 -3.76758e-10 8.28251e-32)
(0.00465607 -3.75457e-10 -1.33535e-32)
(0.00465607 -3.58437e-10 3.01358e-31)
(0.00465607 -3.23058e-10 -1.68228e-31)
(0.00465607 -2.61641e-10 -2.07927e-31)
(0.00465607 -1.87288e-10 2.31679e-31)
(0.00465607 -4.92436e-11 -3.28308e-31)
(0.00465607 7.07202e-11 5.59761e-32)
(0.00465607 3.64314e-10 -2.84516e-31)
(0.00465607 3.63649e-10 -3.35374e-31)
(0.00465607 6.59304e-10 -4.62922e-31)
(0.00475905 8.22224e-10 1.87085e-31)
(0.00475905 6.26295e-10 -1.73785e-30)
(0.00475905 3.89073e-10 -8.8316e-32)
(0.00475905 1.95098e-11 1.07175e-33)
(0.00475905 -7.8817e-11 -3.95251e-32)
(0.00475905 -2.27425e-10 2.86683e-32)
(0.00475905 -2.8148e-10 -4.15624e-32)
(0.00475905 -3.46534e-10 6.93027e-34)
(0.00475905 -3.74999e-10 4.49181e-34)
(0.00475905 -3.9708e-10 -9.21332e-32)
(0.00475905 -3.9441e-10 1.36304e-31)
(0.00475905 -3.7509e-10 -1.49606e-31)
(0.00475905 -3.35828e-10 -2.40845e-32)
(0.00475905 -2.68764e-10 -2.41198e-31)
(0.00475905 -1.87699e-10 3.40903e-31)
(0.00475905 -4.12463e-11 5.68791e-31)
(0.00475905 8.40993e-11 -4.47516e-31)
(0.00475905 3.78271e-10 -1.57276e-33)
(0.00475905 3.60606e-10 2.51423e-31)
(0.00475905 6.29308e-10 3.81926e-30)
(0.00486196 8.24639e-10 -1.57948e-30)
(0.00486196 6.77851e-10 1.77753e-33)
(0.00486196 4.28847e-10 1.5201e-33)
(0.00486196 4.52665e-11 4.16785e-48)
(0.00486196 -6.84292e-11 6.29901e-32)
(0.00486196 -2.31688e-10 8.62297e-32)
(0.00486196 -2.93434e-10 -9.31571e-32)
(0.00486196 -3.63639e-10 4.3205e-48)
(0.00486196 -3.93437e-10 1.01514e-33)
(0.00486196 -4.15581e-10 1.0195e-31)
(0.00486196 -4.11798e-10 1.72689e-48)
(0.00486196 -3.89644e-10 1.4154e-31)
(0.00486196 -3.46471e-10 2.5362e-32)
(0.00486196 -2.73869e-10 4.40508e-31)
(0.00486196 -1.86337e-10 -3.41429e-32)
(0.00486196 -3.24355e-11 3.52488e-31)
(0.00486196 9.68873e-11 3.75158e-31)
(0.00486196 3.88853e-10 -1.64964e-31)
(0.00486196 3.52635e-10 4.45883e-31)
(0.00486196 5.91793e-10 -3.11981e-30)
(0.00496485 8.19793e-10 1.29254e-30)
(0.00496485 7.2392e-10 1.73523e-31)
(0.00496485 4.65849e-10 -2.62669e-31)
(0.00496485 7.2593e-11 0)
(0.00496485 -5.43658e-11 5.56753e-32)
(0.00496485 -2.31313e-10 1.13811e-33)
(0.00496485 -3.01842e-10 1.11505e-31)
(0.00496485 -3.77872e-10 -1.22718e-31)
(0.00496485 -4.09923e-10 1.12889e-48)
(0.00496485 -4.32217e-10 1.8471e-31)
(0.00496485 -4.26677e-10 0)
(0.00496485 -4.01995e-10 2.20581e-31)
(0.00496485 -3.54679e-10 -2.66673e-32)
(0.00496485 -2.76611e-10 5.12657e-31)
(0.00496485 -1.83108e-10 3.04267e-31)
(0.00496485 -2.29662e-11 -3.10767e-31)
(0.00496485 1.08631e-10 4.46106e-32)
(0.00496485 3.95728e-10 1.10609e-31)
(0.00496485 3.3974e-10 2.82615e-32)
(0.00496485 5.47302e-10 -1.78313e-30)
(0.00506777 8.08414e-10 -1.00102e-30)
(0.00506777 7.64015e-10 1.91376e-31)
(0.00506777 4.97981e-10 -2.78834e-32)
(0.00506777 9.89267e-11 1.18754e-33)
(0.00506777 -3.79259e-11 0)
(0.00506777 -2.26619e-10 0)
(0.00506777 -3.05562e-10 -9.65095e-32)
(0.00506777 -3.88176e-10 -1.75594e-32)
(0.00506777 -4.22924e-10 -1.55302e-31)
(0.00506777 -4.46105e-10 -1.92195e-31)
(0.00506777 -4.39047e-10 -3.65153e-31)
(0.00506777 -4.11348e-10 -2.13278e-31)
(0.00506777 -3.60245e-10 -1.84925e-31)
(0.00506777 -2.76921e-10 -2.29943e-31)
(0.00506777 -1.77784e-10 -8.32881e-34)
(0.00506777 -1.30177e-11 -9.5606e-34)
(0.00506777 1.19022e-10 -3.63275e-31)
(0.00506777 3.98695e-10 2.19223e-31)
(0.00506777 3.21907e-10 -1.51811e-31)