/*--------------------------------*- C++ -*----------------------------------*\
  =========                 |
  \\      /  F ield         | OpenFOAM: The Open Source CFD Toolbox
   \\    /   O peration     | Website:  https://openfoam.org
    \\  /    A nd           | Version:  6
     \\/     M anipulation  |
\*---------------------------------------------------------------------------*/
FoamFile
{
    version     2.0;
    format      ascii;
    class       volSymmTensorField;
    location    "19.44";
    object      UPrime2Mean;
}
// * * * * * * * * * * * * * * * * * * * * * * * * * * * * * * * * * * * * * //

dimensions      [0 2 -2 0 0 0 0];

internalField   nonuniform List<symmTensor> 
3240
(
(0.000280585 -1.01194e-14 -6.5698e-34 5.71712e-23 7.73445e-42 3.09977e-60)
(0.000280585 2.17727e-15 -5.29651e-33 1.47443e-22 -3.12311e-42 2.96725e-59)
(0.000280585 -3.82224e-15 3.78225e-33 2.77608e-22 -3.72989e-41 1.47833e-59)
(0.000280585 -8.70349e-15 -1.58857e-33 2.59203e-22 4.04229e-41 1.18829e-59)
(0.000280585 2.29252e-16 1.86449e-34 1.98063e-22 3.62505e-41 1.01302e-59)
(0.000280585 3.51738e-15 1.2416e-33 1.59522e-22 3.1062e-41 8.02905e-60)
(0.000280585 3.92109e-15 1.39974e-33 1.15921e-22 2.35994e-41 5.96488e-60)
(0.000280585 3.79127e-15 1.28748e-33 8.39495e-23 1.78091e-41 4.52985e-60)
(0.000280585 3.40645e-15 -1.82286e-37 6.37479e-23 -9.19745e-45 2.41269e-66)
(0.000280585 2.96489e-15 -9.6338e-34 4.995e-23 -1.15307e-41 3.04598e-60)
(0.000280585 2.54394e-15 -8.3368e-34 3.96995e-23 -9.4869e-42 2.55828e-60)
(0.000280585 2.16944e-15 1.44281e-33 3.17909e-23 1.57014e-41 8.65037e-60)
(0.000280585 1.86225e-15 -1.30427e-37 2.58105e-23 -7.65406e-45 4.80416e-66)
(0.000280585 1.63406e-15 9.09618e-38 2.14548e-23 3.06579e-45 1.07341e-66)
(0.000280585 1.40816e-15 9.73112e-34 1.85482e-23 9.65612e-42 5.50412e-60)
(0.000280585 1.26339e-15 -3.73767e-34 1.6833e-23 -4.41403e-42 1.26424e-60)
(0.000280585 8.7451e-16 -2.3537e-34 1.62646e-23 -4.22737e-42 1.20206e-60)
(0.000280585 5.07937e-16 1.71512e-35 1.67875e-23 -4.28634e-42 1.22589e-60)
(0.000280585 -3.53925e-16 2.40114e-50 1.78766e-23 2.71294e-59 6.10486e-94)
(0.000280585 -9.4274e-15 1.76546e-33 4.59422e-23 -1.09111e-41 1.24278e-59)
(0.00181939 -1.75085e-13 -9.36424e-33 2.72703e-21 4.66857e-40 1.86831e-58)
(0.00181939 2.77318e-14 -1.82097e-32 6.58968e-21 1.85174e-41 7.69645e-59)
(0.00181939 -6.78021e-14 3.11726e-32 1.15442e-20 -9.71278e-40 1.96122e-58)
(0.00181939 -1.36557e-13 -2.94077e-32 1.05478e-20 2.01958e-39 6.4736e-58)
(0.00181939 -2.66634e-14 4.59781e-37 8.40628e-21 -1.70666e-43 6.75409e-66)
(0.00181939 4.13264e-14 6.65917e-37 7.00537e-21 1.44487e-43 5.1731e-66)
(0.00181939 6.18052e-14 1.69273e-45 5.20527e-21 1.6438e-52 9.8762e-84)
(0.00181939 6.61509e-14 -1.0846e-32 3.82255e-21 -4.77828e-40 6.9097e-59)
(0.00181939 6.27266e-14 -1.02125e-32 2.91351e-21 -3.80875e-40 5.6481e-59)
(0.00181939 5.6594e-14 -9.40362e-33 2.29199e-21 -3.12972e-40 4.78693e-59)
(0.00181939 4.97509e-14 -1.54862e-45 1.83136e-21 -4.17968e-52 1.88775e-82)
(0.00181939 4.32636e-14 1.52801e-32 1.48162e-21 4.31157e-40 1.38567e-58)
(0.00181939 3.81919e-14 -6.88647e-33 1.22272e-21 -1.81231e-40 2.9503e-59)
(0.00181939 3.38886e-14 -3.81024e-37 1.04139e-21 -2.32081e-44 1.55023e-66)
(0.00181939 3.11041e-14 9.20992e-37 9.30076e-22 1.95317e-44 1.48875e-66)
(0.00181939 2.77198e-14 6.45989e-45 8.80435e-22 1.07857e-52 5.45226e-83)
(0.00181939 2.39211e-14 -2.295e-33 8.81427e-22 -1.26536e-40 1.99443e-59)
(0.00181939 1.33138e-14 9.67972e-34 9.44517e-22 -1.31451e-40 2.05226e-59)
(0.00181939 2.18886e-15 6.23767e-36 1.02592e-21 2.07484e-44 6.02075e-66)
(0.00181939 -1.72784e-13 1.10735e-32 2.62843e-21 -2.00029e-40 4.42898e-59)
(0.00417204 -5.71572e-13 3.9979e-33 1.43631e-20 4.59456e-40 3.8068e-59)
(0.00417204 -5.58123e-15 -9.2823e-36 2.57077e-20 -1.41286e-44 5.95033e-66)
(0.00417204 -3.3672e-13 -8.75533e-32 5.44706e-20 4.2322e-39 6.32713e-58)
(0.00417204 -4.56067e-13 -1.72167e-41 5.1301e-20 1.93397e-48 1.1069e-76)
(0.00417204 -1.00115e-13 6.26754e-33 4.23803e-20 -1.91643e-39 1.13104e-58)
(0.00417204 1.43339e-13 -6.67304e-33 3.56442e-20 -1.6607e-39 9.36678e-59)
(0.00417204 2.24425e-13 1.32041e-36 2.68633e-20 2.1782e-43 3.33702e-66)
(0.00417204 2.43725e-13 -1.32455e-32 2.00123e-20 -1.00547e-39 5.72829e-59)
(0.00417204 2.32672e-13 -6.32912e-37 1.54455e-20 -1.42438e-43 2.55016e-66)
(0.00417204 2.11409e-13 -3.03973e-37 1.2299e-20 -1.17026e-43 2.16226e-66)
(0.00417204 1.87381e-13 3.60698e-32 9.94086e-21 1.71176e-39 3.24118e-58)
(0.00417204 1.64311e-13 1.66521e-37 8.13638e-21 7.43833e-44 1.53577e-66)
(0.00417204 1.46759e-13 9.97647e-33 6.79785e-21 4.04731e-40 2.64366e-59)
(0.00417204 1.30861e-13 0 5.86376e-21 0 0)
(0.00417204 1.21487e-13 -7.2458e-33 5.30642e-21 -3.08374e-40 1.9997e-59)
(0.00417204 1.06863e-13 4.68944e-33 5.08902e-21 2.8529e-40 1.80801e-59)
(0.00417204 9.30544e-14 0 5.14416e-21 0 0)
(0.00417204 4.77143e-14 3.77993e-33 5.55202e-21 -2.80467e-40 1.71433e-59)
(0.00417204 2.33269e-15 0 6.07995e-21 0 0)
(0.00417204 -5.85825e-13 -1.13383e-32 1.38532e-20 4.20331e-40 3.41722e-59)
(0.00704034 -1.23724e-12 -2.16177e-32 4.42192e-20 -4.74316e-40 3.07086e-59)
(0.00704034 -1.24452e-13 1.13069e-35 6.584e-20 2.03733e-44 5.21745e-66)
(0.00704034 -8.6748e-13 -5.06997e-32 1.551e-19 2.84167e-39 1.12816e-58)
(0.00704034 -9.994e-13 -1.70353e-35 1.47458e-19 1.23902e-42 2.49664e-65)
(0.00704034 -2.35572e-13 0 1.24189e-19 0 0)
(0.00704034 3.16819e-13 -3.04042e-33 1.04842e-19 -2.22054e-39 6.04032e-59)
(0.00704034 5.09328e-13 -1.58417e-41 7.96126e-20 -2.9581e-48 1.3376e-76)
(0.00704034 5.59987e-13 8.95618e-37 5.98775e-20 2.62878e-43 2.34632e-66)
(0.00704034 5.38579e-13 1.29144e-32 4.66354e-20 1.15976e-39 3.30765e-59)
(0.00704034 4.93154e-13 -6.40297e-37 3.74738e-20 -3.60849e-43 6.93091e-66)
(0.00704034 4.40552e-13 -1.28751e-32 3.05479e-20 -8.39481e-40 2.59532e-59)
(0.00704034 3.88991e-13 -1.19792e-32 2.52126e-20 -7.10665e-40 2.25412e-59)
(0.00704034 3.50161e-13 -3.69122e-41 2.12435e-20 -2.02584e-48 2.18713e-76)
(0.00704034 3.12929e-13 7.48719e-37 1.84723e-20 7.43369e-44 1.00877e-66)
(0.00704034 2.918e-13 -1.25886e-41 1.6847e-20 -7.59046e-49 4.0742e-77)
(0.00704034 2.53484e-13 -1.93424e-36 1.62639e-20 -5.99894e-44 1.03806e-66)
(0.00704034 2.19947e-13 -9.39676e-35 1.65087e-20 -3.80872e-40 1.15671e-59)
(0.00704034 1.0276e-13 -7.41279e-33 1.7863e-20 3.76753e-40 1.18512e-59)
(0.00704034 -1.11321e-14 -1.09752e-35 1.96331e-20 -6.89855e-44 4.66392e-66)
(0.00704034 -1.30272e-12 2.96387e-33 4.26841e-20 -4.45618e-40 2.35332e-59)
(0.010263 -2.15221e-12 -3.97122e-32 1.01027e-19 -3.47727e-40 3.19166e-59)
(0.010263 -3.46148e-13 3.50653e-32 1.33306e-19 3.68365e-40 5.33314e-59)
(0.010263 -1.68384e-12 1.67198e-31 3.35993e-19 -9.94385e-39 8.28721e-58)
(0.010263 -1.75124e-12 9.2324e-33 3.18718e-19 -2.68423e-39 5.49468e-59)
(0.010263 -4.3406e-13 -3.53589e-36 2.72104e-19 1.37347e-42 1.32451e-65)
(0.010263 5.54128e-13 2.36659e-37 2.2996e-19 5.76372e-43 2.5525e-66)
(0.010263 9.10085e-13 -1.99475e-45 1.75448e-19 -6.63259e-52 4.87067e-84)
(0.010263 1.01294e-12 -1.05687e-32 1.32955e-19 -1.7677e-39 2.91095e-59)
(0.010263 9.82035e-13 -6.77958e-37 1.04317e-19 -2.94842e-43 1.67759e-66)
(0.010263 9.0623e-13 3.13871e-37 8.44318e-20 2.42968e-43 1.43104e-66)
(0.010263 8.15599e-13 -1.32977e-32 6.92874e-20 -1.11614e-39 2.06284e-59)
(0.010263 7.24577e-13 -7.3075e-46 5.75499e-20 -4.6439e-52 9.28239e-84)
(0.010263 6.56237e-13 -6.93942e-37 4.87902e-20 -1.24493e-43 9.17232e-67)
(0.010263 5.8732e-13 1.18371e-50 4.2659e-20 1.35108e-57 1.51905e-94)
(0.010263 5.48747e-13 1.19359e-44 3.90988e-20 5.23532e-52 3.04267e-83)
(0.010263 4.71286e-13 -2.23531e-36 3.7874e-20 -8.26928e-44 8.94341e-67)
(0.010263 4.05544e-13 -4.65529e-36 3.85034e-20 -8.39998e-44 1.19816e-66)
(0.010263 1.71544e-13 -4.85978e-36 4.16741e-20 -9.59849e-44 1.64169e-66)
(0.010263 -4.99945e-14 2.52215e-35 4.59257e-20 1.85265e-43 1.67669e-65)
(0.010263 -2.32781e-12 -7.00714e-33 9.75898e-20 -3.4035e-40 2.01056e-59)
(0.0137398 -3.28776e-12 5.68029e-32 1.92826e-19 1.14555e-40 3.64834e-59)
(0.0137398 -6.86986e-13 -1.41339e-35 2.33503e-19 -2.64746e-44 4.21659e-66)
(0.0137398 -2.79919e-12 -1.30909e-35 6.1741e-19 6.78669e-43 4.05576e-66)
(0.0137398 -2.69109e-12 1.02967e-35 5.81005e-19 -1.00442e-42 4.32689e-66)
(0.0137398 -6.92723e-13 1.54035e-32 5.01444e-19 -3.22781e-39 4.1222e-59)
(0.0137398 8.48735e-13 -1.35153e-41 4.23893e-19 7.18663e-48 1.99138e-76)
(0.0137398 1.41901e-12 3.71487e-33 3.24554e-19 2.52133e-39 2.79324e-59)
(0.0137398 1.59666e-12 8.1853e-37 2.47509e-19 4.37616e-43 1.62347e-66)
(0.0137398 1.55978e-12 -6.56661e-37 1.9544e-19 -3.66797e-43 1.41343e-66)
(0.0137398 1.44986e-12 -2.94742e-37 1.59162e-19 -3.0262e-43 1.20868e-66)
(0.0137398 1.31354e-12 2.699e-32 1.31342e-19 2.81317e-39 7.01816e-59)
(0.0137398 1.17332e-12 3.10698e-41 1.09657e-19 2.8966e-48 8.92144e-77)
(0.0137398 1.06801e-12 1.19373e-32 9.34147e-20 1.02566e-39 1.33589e-59)
(0.0137398 9.56824e-13 9.9837e-37 8.20015e-20 1.27057e-43 7.35498e-67)
(0.0137398 8.94688e-13 1.71663e-41 7.54053e-20 1.78841e-48 5.73278e-77)
(0.0137398 7.60391e-13 -2.48123e-36 7.31563e-20 -1.04995e-43 7.83607e-67)
(0.0137398 6.47425e-13 5.15548e-36 7.43783e-20 1.07278e-43 1.06349e-66)
(0.0137398 2.46493e-13 1.41214e-32 8.04331e-20 -5.1567e-40 8.69717e-60)
(0.0137398 -1.25647e-13 1.94802e-49 8.88215e-20 1.58584e-57 7.43538e-94)
(0.0137398 -3.65017e-12 1.41657e-35 1.86178e-19 -2.32613e-43 4.86972e-66)
(0.0174037 -4.61226e-12 7.28917e-32 3.27103e-19 -2.38517e-40 4.19464e-59)
(0.0174037 -1.16357e-12 -2.15708e-53 3.71177e-19 -6.88273e-61 1.3896e-101)
(0.0174037 -4.22311e-12 -1.17273e-31 1.01824e-18 6.42457e-39 2.79506e-58)
(0.0174037 -3.79332e-12 2.94257e-33 9.47484e-19 2.07803e-39 4.3148e-59)
(0.0174037 -1.00613e-12 -4.60059e-36 8.25312e-19 2.01248e-42 9.55774e-66)
(0.0174037 1.19449e-12 1.08366e-32 6.97685e-19 -3.12058e-39 2.81339e-59)
(0.0174037 2.02731e-12 -2.13484e-51 5.35762e-19 -1.16049e-57 5.01948e-96)
(0.0174037 2.30389e-12 7.51914e-37 4.10929e-19 5.17511e-43 1.39105e-66)
(0.0174037 2.26663e-12 2.06406e-32 3.26342e-19 4.28192e-39 7.14894e-59)
(0.0174037 2.12096e-12 -2.49411e-32 2.67215e-19 -3.83387e-39 6.64413e-59)
(0.0174037 1.9332e-12 3.10643e-37 2.21573e-19 2.90926e-43 8.78393e-67)
(0.0174037 1.7351e-12 3.02577e-37 1.85796e-19 2.31202e-43 7.65092e-67)
(0.0174037 1.58611e-12 -1.19441e-32 1.58897e-19 -1.2369e-39 1.16629e-59)
(0.0174037 1.42205e-12 1.09337e-36 1.39905e-19 1.51907e-43 6.43842e-67)
(0.0174037 1.32983e-12 1.58545e-41 1.28939e-19 2.12506e-48 5.03064e-77)
(0.0174037 1.11932e-12 -9.69324e-34 1.25147e-19 -7.49245e-40 7.64413e-60)
(0.0174037 9.41929e-13 6.00618e-33 1.27137e-19 -6.29457e-40 6.98128e-60)
(0.0174037 3.2041e-13 -3.42571e-32 1.37283e-19 1.11697e-39 3.30026e-59)
(0.0174037 -2.48032e-13 3.08748e-32 1.51855e-19 -4.74813e-40 1.02089e-59)
(0.0174037 -5.25395e-12 2.73252e-32 3.15252e-19 -2.12126e-40 2.01364e-59)
(0.0212068 -6.09139e-12 -8.76189e-32 5.10685e-19 7.05887e-40 4.69128e-59)
(0.0212068 -1.78994e-12 -4.84529e-32 5.50619e-19 -2.31694e-39 6.93888e-59)
(0.0212068 -5.96051e-12 5.55171e-32 1.55636e-18 -2.31397e-39 6.2123e-59)
(0.0212068 -5.03107e-12 8.56362e-33 1.42861e-18 1.08528e-39 4.51548e-59)
(0.0212068 -1.36752e-12 -2.21514e-32 1.2545e-18 2.73453e-39 3.02624e-59)
(0.0212068 1.58502e-12 -1.65405e-32 1.06037e-18 2.98905e-39 2.39368e-59)
(0.0212068 2.72606e-12 1.97705e-51 8.16483e-19 1.33167e-57 4.38931e-96)
(0.0212068 3.12616e-12 4.15333e-33 6.29602e-19 2.61305e-39 1.65288e-59)
(0.0212068 3.0959e-12 5.81027e-37 5.02661e-19 4.98238e-43 1.05499e-66)
(0.0212068 2.91488e-12 2.38353e-37 4.13611e-19 4.11872e-43 9.0572e-67)
(0.0212068 2.67139e-12 -1.28075e-32 3.44438e-19 -1.93499e-39 1.31371e-59)
(0.0212068 2.40797e-12 2.51395e-32 2.89912e-19 3.36034e-39 4.69794e-59)
(0.0212068 2.20923e-12 9.29881e-51 2.48751e-19 2.1689e-57 6.14229e-95)
(0.0212068 1.98177e-12 -8.92686e-33 2.19533e-19 -1.20561e-39 8.83974e-60)
(0.0212068 1.85262e-12 5.79967e-33 2.02637e-19 1.01012e-39 7.72165e-60)
(0.0212068 1.54529e-12 3.33952e-34 1.96615e-19 -8.35682e-40 6.81795e-60)
(0.0212068 1.2845e-12 -1.18234e-35 1.99475e-19 -3.03068e-43 3.4588e-66)
(0.0212068 3.8665e-13 3.98331e-32 2.15009e-19 -1.15296e-39 3.20975e-59)
(0.0212068 -4.25332e-13 1.5896e-35 2.38165e-19 1.43818e-43 3.18974e-66)
(0.0212068 -7.12034e-12 -3.25179e-35 4.90638e-19 7.40647e-43 1.61513e-65)
(0.0251137 -7.69155e-12 -9.99823e-32 7.49845e-19 1.25606e-39 4.89622e-59)
(0.0251137 -2.57846e-12 -4.80452e-32 7.75295e-19 -3.32613e-39 7.65397e-59)
(0.0251137 -8.01538e-12 1.47146e-35 2.24776e-18 -1.14419e-42 2.7744e-66)
(0.0251137 -6.37519e-12 1.17767e-32 2.03174e-18 -2.49978e-40 5.10511e-59)
(0.0251137 -1.76998e-12 -2.55069e-32 1.79719e-18 2.00566e-39 2.86447e-59)
(0.0251137 2.01464e-12 -2.20954e-32 1.51897e-18 2.65688e-39 2.17943e-59)
(0.0251137 3.50582e-12 -7.86914e-33 1.17266e-18 2.8336e-39 1.63507e-59)
(0.0251137 4.05453e-12 3.10293e-33 9.0889e-19 5.47849e-39 5.68909e-59)
(0.0251137 4.04019e-12 -7.12443e-33 7.29276e-19 -2.58555e-39 1.3092e-59)
(0.0251137 3.8256e-12 3.132e-32 6.02795e-19 7.19918e-39 1.11395e-58)
(0.0251137 3.52372e-12 -3.04462e-37 5.03932e-19 -3.75249e-43 6.79344e-67)
(0.0251137 3.18846e-12 -1.19773e-32 4.25566e-19 -1.88633e-39 1.02942e-59)
(0.0251137 2.9347e-12 1.10716e-32 3.66171e-19 1.6104e-39 8.99604e-60)
(0.0251137 2.63343e-12 8.24935e-33 3.23763e-19 1.35131e-39 7.8216e-60)
(0.0251137 2.4602e-12 4.8215e-33 2.99154e-19 1.12e-39 6.875e-60)
(0.0251137 2.03458e-12 -1.7164e-33 2.90028e-19 9.05307e-40 6.14769e-60)
(0.0251137 1.67006e-12 6.19886e-36 2.93748e-19 1.72175e-43 7.89026e-67)
(0.0251137 4.39171e-13 2.24479e-32 3.16017e-19 -5.74514e-40 7.91505e-60)
(0.0251137 -6.64445e-13 -3.98879e-32 3.50465e-19 3.98647e-40 1.10697e-59)
(0.0251137 -9.22872e-12 -1.16329e-40 7.17064e-19 3.16163e-48 1.36139e-76)
(0.0290977 -9.3816e-12 -1.08884e-31 1.05041e-18 1.8469e-39 4.56493e-59)
(0.0290977 -3.53665e-12 8.85634e-32 1.0487e-18 8.42048e-39 3.42401e-58)
(0.0290977 -1.03856e-11 1.00836e-40 3.10744e-18 8.68471e-49 2.45349e-76)
(0.0290977 -7.8021e-12 -1.01177e-32 2.76287e-18 1.52627e-39 6.32316e-59)
(0.0290977 -2.20648e-12 -2.72181e-36 2.45986e-18 1.41998e-42 1.64565e-66)
(0.0290977 2.47782e-12 2.66585e-32 2.07879e-18 -2.27319e-39 2.05672e-59)
(0.0290977 4.35809e-12 1.12434e-32 1.60898e-18 -2.77819e-39 1.46831e-59)
(0.0290977 5.08e-12 6.481e-34 1.25326e-18 -2.83685e-39 1.25971e-59)
(0.0290977 5.0915e-12 -1.37591e-41 1.01041e-18 -6.62346e-48 6.68234e-77)
(0.0290977 4.84695e-12 -9.45961e-33 8.3871e-19 -2.60854e-39 1.09833e-59)
(0.0290977 4.48504e-12 1.14241e-32 7.03637e-19 2.37209e-39 1.01916e-59)
(0.0290977 4.07257e-12 -2.27479e-32 5.95985e-19 -4.16456e-39 3.66503e-59)
(0.0290977 3.75893e-12 1.04455e-32 5.14046e-19 1.77845e-39 8.01226e-60)
(0.0290977 3.37363e-12 -3.60665e-41 4.55193e-19 -7.14485e-48 1.6155e-76)
(0.0290977 3.1489e-12 3.7748e-33 4.20871e-19 1.22034e-39 6.20465e-60)
(0.0290977 2.58299e-12 -3.07869e-33 4.07561e-19 9.63391e-40 5.63115e-60)
(0.0290977 2.09335e-12 -1.24257e-32 4.11995e-19 7.17297e-40 5.64971e-60)
(0.0290977 4.72695e-13 -2.46468e-32 4.42367e-19 5.60794e-40 7.91015e-60)
(0.0290977 -9.7074e-13 0 4.91074e-19 0 0)
(0.0290977 -1.15579e-11 5.89365e-32 9.98207e-19 -2.04438e-39 2.66842e-59)
(0.0331378 -1.11401e-11 -1.17455e-35 1.41884e-18 9.55984e-43 2.99469e-66)
(0.0331378 -4.67059e-12 3.70991e-32 1.38007e-18 6.24605e-39 1.13167e-58)
(0.0331378 -1.30726e-11 3.00506e-32 4.16182e-18 4.15665e-39 4.26435e-59)
(0.0331378 -9.3048e-12 -1.90094e-32 3.63306e-18 8.86644e-39 3.74972e-58)
(0.0331378 -2.66783e-12 3.19504e-32 3.25164e-18 7.86662e-40 3.19923e-59)
(0.0331378 2.97623e-12 6.67553e-32 2.74635e-18 -2.30114e-39 8.45839e-59)
(0.0331378 5.27958e-12 3.30633e-32 2.13059e-18 -4.617e-39 5.24058e-59)
(0.0331378 6.19851e-12 8.74476e-33 1.66733e-18 -5.41556e-39 4.24817e-59)
(0.0331378 6.24553e-12 -1.3611e-45 1.35018e-18 -2.01344e-51 6.73612e-84)
(0.0331378 5.9744e-12 -1.56153e-32 1.12509e-18 -5.46782e-39 3.76835e-59)
(0.0331378 5.55129e-12 -1.02356e-32 9.4692e-19 -2.52654e-39 8.88081e-60)
(0.0331378 5.05661e-12 -1.04306e-32 8.04183e-19 -2.23811e-39 8.08817e-60)
(0.0331378 4.67845e-12 -9.5044e-33 6.95074e-19 -1.91725e-39 7.15809e-60)
(0.0331378 4.19899e-12 -1.31182e-32 6.16233e-19 -3.20115e-39 2.53298e-59)
(0.0331378 3.91488e-12 -2.53679e-33 5.69977e-19 -1.29967e-39 5.69347e-60)
(0.0331378 3.18639e-12 0 5.51174e-19 0 0)
(0.0331378 2.54911e-12 1.46321e-32 5.5603e-19 -7.09792e-40 5.58407e-60)
(0.0331378 4.83431e-13 2.67033e-32 5.95905e-19 -5.21677e-40 8.17359e-60)
(0.0331378 -1.34851e-12 4.86484e-32 6.62064e-19 -2.35021e-40 1.29467e-59)
(0.0331378 -1.40874e-11 1.81715e-35 1.33706e-18 -5.82861e-43 3.16642e-66)
(0.0372177 -1.29025e-11 1.41529e-31 1.85789e-18 -4.21544e-39 6.33077e-59)
(0.0372177 -5.97835e-12 -1.21242e-32 1.74609e-18 -4.37646e-39 3.42095e-59)
(0.0372177 -1.60556e-11 -1.76588e-35 5.37227e-18 1.85814e-42 2.66407e-66)
(0.0372177 -1.0798e-11 -7.2991e-33 4.61122e-18 8.37811e-39 1.23248e-58)
(0.0372177 -3.14768e-12 4.85624e-32 4.15196e-18 5.37142e-39 8.73365e-59)
(0.0372177 3.47317e-12 1.89115e-32 3.50924e-18 2.94846e-40 5.46048e-60)
(0.0372177 6.23566e-12 -9.0518e-37 2.73185e-18 -1.191e-42 1.10682e-66)
(0.0372177 7.38119e-12 -6.032e-33 2.14948e-18 1.55919e-39 4.2086e-60)
(0.0372177 7.48086e-12 1.15553e-34 1.74917e-18 1.2361e-39 1.76779e-60)
(0.0372177 7.19214e-12 1.30912e-37 1.4634e-18 6.68903e-43 7.34498e-67)
(0.0372177 6.71085e-12 -9.67629e-33 1.23561e-18 -2.94121e-39 9.8598e-60)
(0.0372177 6.13144e-12 -4.21668e-33 1.05202e-18 -1.0755e-39 1.5146e-60)
(0.0372177 5.68579e-12 -9.36452e-33 9.11068e-19 -2.27439e-39 8.21415e-60)
(0.0372177 5.10301e-12 0 8.08584e-19 0 0)
(0.0372177 4.75219e-12 -5.10123e-34 7.48053e-19 -6.21725e-40 1.1224e-60)
(0.0372177 3.83892e-12 3.96627e-33 7.22256e-19 -6.77189e-40 2.28084e-60)
(0.0372177 3.03195e-12 2.67651e-32 7.27057e-19 -1.07869e-39 1.42854e-59)
(0.0372177 4.64531e-13 -7.75886e-36 7.77717e-19 -2.60111e-43 1.07596e-66)
(0.0372177 -1.80237e-12 6.03923e-32 8.64644e-19 -1.16496e-40 1.87444e-59)
(0.0372177 -1.67957e-11 -5.38072e-32 1.73435e-18 2.6644e-39 1.58513e-59)
(0.0425917 -1.52865e-11 4.22738e-35 2.54374e-18 -4.08395e-42 2.98781e-65)
(0.0425917 -7.9234e-12 4.51622e-33 2.33545e-18 1.11798e-38 1.59896e-58)
(0.0425917 -2.03659e-11 -2.49381e-32 7.30629e-18 2.79271e-38 1.89677e-58)
(0.0425917 -1.29015e-11 -1.31179e-32 6.12045e-18 -4.48939e-38 2.06873e-57)
(0.0425917 -3.79488e-12 1.26628e-31 5.54003e-18 2.43989e-38 6.16082e-58)
(0.0425917 4.19469e-12 -1.00821e-31 4.68019e-18 -6.27009e-39 1.4459e-58)
(0.0425917 7.5891e-12 -2.78871e-36 3.65379e-18 -4.05623e-42 9.56009e-66)
(0.0425917 9.05486e-12 -1.06655e-32 2.89081e-18 1.40981e-39 5.65803e-60)
(0.0425917 9.23032e-12 6.49761e-33 2.36446e-18 -5.14581e-39 3.19221e-59)
(0.0425917 8.92184e-12 0 1.98673e-18 0 0)
(0.0425917 8.36204e-12 -8.35086e-33 1.68325e-18 -3.42978e-39 1.1063e-59)
(0.0425917 7.66585e-12 1.55602e-32 1.43714e-18 5.05822e-39 2.69546e-59)
(0.0425917 7.12533e-12 0 1.24714e-18 0 0)
(0.0425917 6.39395e-12 -4.84303e-33 1.10796e-18 -2.26523e-39 8.65054e-60)
(0.0425917 5.94248e-12 -1.84071e-33 1.02499e-18 2.8912e-39 2.10343e-59)
(0.0425917 4.75906e-12 1.67134e-32 9.87527e-19 -2.07747e-39 2.09467e-59)
(0.0425917 3.69384e-12 -4.07859e-32 9.9141e-19 1.26736e-39 2.4598e-59)
(0.0425917 4.06486e-13 -3.97829e-32 1.05815e-18 4.34108e-40 1.4693e-59)
(0.0425917 -2.50944e-12 0 1.1772e-18 0 0)
(0.0425917 -2.05562e-11 -1.9728e-31 2.33985e-18 1.13641e-38 1.817e-58)
(0.0493994 -1.82074e-11 1.1043e-34 3.61636e-18 -1.18799e-41 1.76782e-64)
(0.0493994 -1.07524e-11 5.31235e-33 3.16623e-18 -4.07344e-39 1.58702e-59)
(0.0493994 -2.64627e-11 -1.14287e-31 1.01709e-17 6.54465e-38 6.81443e-58)
(0.0493994 -1.55089e-11 4.19463e-32 8.28062e-18 4.22312e-38 1.19236e-57)
(0.0493994 -4.61627e-12 -1.74678e-31 7.55412e-18 -4.76788e-38 1.20023e-57)
(0.0493994 5.07702e-12 0 6.3897e-18 0 0)
(0.0493994 9.33531e-12 0 5.01908e-18 0 0)
(0.0493994 1.12819e-11 3.7577e-33 4.00655e-18 -1.60573e-40 3.57178e-61)
(0.0493994 1.1602e-11 -2.22631e-32 3.30206e-18 5.86191e-39 5.77979e-59)
(0.0493994 1.12966e-11 -3.37822e-34 2.79094e-18 3.66354e-39 1.26076e-59)
(0.0493994 1.06488e-11 4.52021e-33 2.37533e-18 3.30246e-39 8.86534e-60)
(0.0493994 9.80316e-12 7.22926e-33 2.03515e-18 3.57924e-39 1.10358e-59)
(0.0493994 9.13693e-12 6.40543e-33 1.77052e-18 3.14299e-39 1.02844e-59)
(0.0493994 8.19693e-12 1.73314e-33 1.57472e-18 2.26003e-39 7.22129e-60)
(0.0493994 7.59653e-12 -5.04889e-33 1.45648e-18 2.01512e-39 9.29318e-60)
(0.0493994 6.01965e-12 -1.59367e-32 1.39915e-18 1.35606e-39 9.80439e-60)
(0.0493994 4.56449e-12 -6.67146e-32 1.39971e-18 1.36109e-39 4.9529e-59)
(0.0493994 2.43847e-13 -5.6416e-32 1.48974e-18 2.49159e-40 2.55414e-59)
(0.0493994 -3.62302e-12 -1.8696e-31 1.65842e-18 -1.2447e-39 1.51999e-58)
(0.0493994 -2.56306e-11 3.29401e-31 3.2529e-18 -2.22475e-38 4.41212e-58)
(0.0566413 -2.13564e-11 1.47804e-31 5.00861e-18 -2.06171e-38 2.55717e-58)
(0.0566413 -1.40952e-11 -1.35671e-32 4.20853e-18 5.87553e-39 2.63743e-59)
(0.0566413 -3.35374e-11 6.09827e-31 1.38104e-17 -2.93758e-37 1.06133e-56)
(0.0566413 -1.8497e-11 7.19775e-35 1.09397e-17 -1.25324e-41 4.19097e-65)
(0.0566413 -5.50174e-12 -1.24222e-31 1.00504e-17 -4.11925e-38 5.9087e-58)
(0.0566413 6.06755e-12 -1.05018e-31 8.51564e-18 -1.75453e-38 1.5901e-58)
(0.0566413 1.12923e-11 -7.06847e-32 6.73387e-18 -6.10534e-39 5.88032e-59)
(0.0566413 1.38115e-11 -5.17099e-33 5.42477e-18 -8.43682e-41 4.46272e-61)
(0.0566413 1.43235e-11 1.37244e-32 4.50436e-18 -1.55085e-39 8.54791e-60)
(0.0566413 1.40394e-11 -7.86893e-34 3.82873e-18 4.44979e-40 2.1441e-61)
(0.0566413 1.33083e-11 1.19267e-33 3.2727e-18 4.7856e-39 1.74254e-59)
(0.0566413 1.2297e-11 4.49763e-34 2.81297e-18 4.84595e-40 1.7446e-61)
(0.0566413 1.14885e-11 3.73096e-34 2.45268e-18 4.31319e-40 1.64194e-61)
(0.0566413 1.03009e-11 -2.13964e-33 2.18331e-18 3.42389e-39 1.44802e-59)
(0.0566413 9.51411e-12 1.76473e-32 2.01823e-18 -3.81746e-39 3.19956e-59)
(0.0566413 7.45889e-12 -4.46163e-32 1.93254e-18 2.67714e-39 4.64419e-59)
(0.0566413 5.51458e-12 -1.05064e-32 1.92624e-18 1.17897e-40 9.53859e-61)
(0.0566413 -3.27564e-14 5.64013e-32 2.0449e-18 9.4183e-41 2.27743e-59)
(0.0566413 -5.06417e-12 -1.32975e-31 2.27687e-18 -1.47861e-39 7.20043e-59)
(0.0566413 -3.13291e-11 2.5287e-31 4.39728e-18 -1.93645e-38 2.30985e-58)
(0.0643127 -2.47037e-11 1.43565e-32 6.76496e-18 -4.3223e-39 9.44159e-60)
(0.0643127 -1.78723e-11 2.25036e-32 5.4072e-18 -7.84958e-39 4.00397e-59)
(0.0643127 -4.14826e-11 1.32167e-31 1.81128e-17 -6.04473e-38 3.66736e-58)
(0.0643127 -2.17685e-11 -1.7252e-34 1.4026e-17 3.19191e-41 2.09283e-64)
(0.0643127 -6.49357e-12 1.47675e-31 1.29737e-17 5.43668e-38 7.78518e-58)
(0.0643127 7.0976e-12 -1.65513e-32 1.10474e-17 -3.5399e-39 4.12042e-60)
(0.0643127 1.33868e-11 -1.1163e-32 8.81261e-18 -1.38884e-39 1.41815e-60)
(0.0643127 1.65939e-11 5.74915e-32 7.17364e-18 3.42276e-39 4.39187e-59)
(0.0643127 1.73651e-11 6.57591e-32 6.00662e-18 -2.0002e-39 1.06351e-58)
(0.0643127 1.71453e-11 1.3888e-32 5.13691e-18 -3.1796e-39 1.63909e-59)
(0.0643127 1.63424e-11 4.86584e-33 4.41032e-18 -4.06335e-39 1.34113e-59)
(0.0643127 1.51575e-11 1.84787e-33 3.80305e-18 -7.84103e-39 4.30391e-59)
(0.0643127 1.41914e-11 2.03029e-34 3.32309e-18 -4.37015e-40 1.53768e-61)
(0.0643127 1.27147e-11 6.84537e-33 2.96034e-18 -3.09825e-39 1.11499e-59)
(0.0643127 1.17007e-11 3.5096e-32 2.73454e-18 -4.76556e-39 5.26405e-59)
(0.0643127 9.07186e-12 2.28646e-32 2.60959e-18 -9.33155e-40 8.18522e-60)
(0.0643127 6.53078e-12 1.07615e-31 2.5914e-18 -2.88297e-40 7.98591e-59)
(0.0643127 -4.6156e-13 7.0961e-32 2.74465e-18 5.59196e-40 3.31184e-59)
(0.0643127 -6.88248e-12 2.50194e-31 3.05517e-18 3.89511e-39 2.42091e-58)
(0.0643127 -3.76325e-11 -5.10442e-31 5.79605e-18 4.33701e-38 8.48845e-58)
(0.0724094 -2.84051e-11 -6.95943e-32 8.89882e-18 5.5691e-38 1.26561e-57)
(0.0724094 -2.19961e-11 -3.04339e-32 6.75441e-18 9.62811e-39 5.33929e-59)
(0.0724094 -4.99914e-11 -1.17398e-30 2.28904e-17 5.40058e-37 2.3531e-56)
(0.0724094 -2.54691e-11 1.57544e-31 1.75173e-17 9.86391e-38 3.08368e-57)
(0.0724094 -7.63522e-12 2.48265e-32 1.63102e-17 9.93218e-39 2.08066e-59)
(0.0724094 8.15189e-12 1.9741e-32 1.39978e-17 5.12561e-39 6.14485e-60)
(0.0724094 1.56043e-11 1.33486e-32 1.12905e-17 2.20704e-39 2.03468e-60)
(0.0724094 1.96213e-11 -6.42016e-32 9.2993e-18 -6.47452e-39 4.79055e-59)
(0.0724094 2.0729e-11 -4.33318e-32 7.85643e-18 -1.26459e-39 3.04453e-59)
(0.0724094 2.06224e-11 1.99536e-32 6.76154e-18 -1.78437e-39 1.43397e-59)
(0.0724094 1.97626e-11 1.63198e-36 5.83066e-18 5.6071e-42 1.51402e-65)
(0.0724094 1.83995e-11 6.85903e-33 5.04416e-18 -3.87547e-39 1.18389e-59)
(0.0724094 1.72596e-11 -9.29154e-34 4.41663e-18 4.12796e-40 1.46922e-61)
(0.0724094 1.54483e-11 1.13508e-32 3.93698e-18 -2.5974e-39 8.55693e-60)
(0.0724094 1.41594e-11 -2.35909e-32 3.63349e-18 2.01981e-39 1.20945e-59)
(0.0724094 1.08533e-11 1.06036e-31 3.4553e-18 -2.43399e-39 1.25716e-58)
(0.0724094 7.59294e-12 5.58195e-32 3.41848e-18 3.25148e-40 1.78725e-59)
(0.0724094 -1.0718e-12 0 3.61323e-18 0 0)
(0.0724094 -9.1332e-12 2.76256e-31 4.01861e-18 5.62278e-39 2.85089e-58)
(0.0724094 -4.4499e-11 -5.99449e-31 7.47025e-18 5.5737e-38 1.06271e-57)
(0.080927 -3.26549e-11 2.18392e-34 1.13861e-17 -3.20487e-41 4.3636e-64)
(0.080927 -2.63682e-11 3.57522e-32 8.24275e-18 -1.05659e-38 6.16008e-59)
(0.080927 -5.86158e-11 7.33872e-31 2.77561e-17 -3.43205e-37 7.91264e-57)
(0.080927 -2.95972e-11 3.71924e-31 2.13326e-17 2.48498e-37 1.58215e-56)
(0.080927 -9.0347e-12 -2.51086e-31 1.99667e-17 -1.06991e-37 2.0618e-57)
(0.080927 9.16461e-12 -1.98079e-31 1.73261e-17 -5.95419e-38 6.47775e-58)
(0.080927 1.78891e-11 -1.36253e-31 1.41761e-17 -2.76095e-38 2.13011e-58)
(0.080927 2.28552e-11 6.81806e-32 1.18364e-17 9.38772e-39 4.98992e-59)
(0.080927 2.43951e-11 3.28919e-36 1.00967e-17 2.05715e-41 1.03325e-64)
(0.080927 2.44581e-11 3.86151e-33 8.74684e-18 -2.78563e-41 2.96385e-61)
(0.080927 2.35691e-11 0 7.57692e-18 0 0)
(0.080927 2.20256e-11 -1.07958e-50 6.576e-18 -2.06117e-56 2.1533e-94)
(0.080927 2.06983e-11 1.7658e-33 5.76953e-18 -3.66294e-40 1.48151e-61)
(0.080927 1.85035e-11 2.29699e-33 5.14568e-18 -2.98025e-40 1.49259e-61)
(0.080927 1.68862e-11 -2.79123e-32 4.74429e-18 1.41215e-39 9.95606e-60)
(0.080927 1.27888e-11 -3.4266e-32 4.49555e-18 2.31976e-40 9.84707e-60)
(0.080927 8.67753e-12 -5.63466e-32 4.4315e-18 -8.0239e-40 1.5552e-59)
(0.080927 -1.89795e-12 -7.53002e-32 4.6756e-18 -1.69376e-39 3.38259e-59)
(0.080927 -1.18718e-11 -1.22662e-31 5.19248e-18 -3.12004e-39 5.49055e-59)
(0.080927 -5.18694e-11 -4.29141e-32 9.43464e-18 4.29873e-39 4.88741e-60)
(0.0898611 -3.77136e-11 -1.25904e-49 1.41633e-17 1.83504e-56 1.28142e-94)
(0.0898611 -3.09698e-11 -3.44124e-31 9.92774e-18 9.16007e-38 4.594e-57)
(0.0898611 -6.67778e-11 -7.67952e-31 3.21937e-17 3.60407e-37 7.83403e-57)
(0.0898612 -3.40939e-11 -1.50068e-31 2.53895e-17 -1.1109e-37 2.57608e-57)
(0.0898612 -1.07545e-11 4.98126e-35 2.38565e-17 -5.82396e-41 2.91645e-64)
(0.0898612 1.00704e-11 1.931e-31 2.09859e-17 6.47611e-38 6.47773e-58)
(0.0898612 2.01823e-11 1.37901e-31 1.74708e-17 3.27261e-38 2.22615e-58)
(0.0898612 2.6252e-11 1.18179e-31 1.48111e-17 2.0139e-38 1.41096e-58)
(0.0898611 2.83292e-11 -6.14403e-32 1.2768e-17 -6.9126e-39 4.11777e-59)
(0.0898611 2.86292e-11 -8.65064e-32 1.11364e-17 -4.16769e-39 9.79183e-59)
(0.0898611 2.77528e-11 2.03161e-36 9.69245e-18 8.94053e-42 2.37169e-65)
(0.0898611 2.60275e-11 -2.04593e-32 8.43908e-18 1.93407e-39 1.01712e-59)
(0.0898611 2.45014e-11 -2.77186e-33 7.41922e-18 2.74529e-40 1.52503e-61)
(0.0898611 2.18733e-11 -7.67521e-32 6.62032e-18 5.39169e-39 8.85884e-59)
(0.0898611 1.98677e-11 -4.06653e-32 6.09735e-18 9.54114e-40 1.3774e-59)
(0.0898611 1.486e-11 -1.06835e-31 5.75706e-18 -8.87409e-40 7.48319e-59)
(0.0898611 9.75369e-12 -1.68312e-31 5.65516e-18 -3.75627e-39 1.21608e-58)
(0.0898611 -2.9763e-12 -9.17642e-32 5.95747e-18 -2.82097e-39 4.91128e-59)
(0.0898611 -1.51492e-11 -3.44336e-31 6.6018e-18 -1.05885e-38 4.26765e-58)
(0.0898611 -5.9666e-11 1.14659e-30 1.16976e-17 -1.23427e-37 3.18346e-57)
(0.0992075 -4.38167e-11 -2.97445e-34 1.71633e-17 4.70708e-41 6.69673e-64)
(0.0992075 -3.56118e-11 6.58043e-31 1.18434e-17 -1.51104e-37 1.296e-56)
(0.0992075 -7.41294e-11 -9.25077e-31 3.59713e-17 4.28652e-37 1.05534e-56)
(0.0992075 -3.87279e-11 -3.31862e-31 2.96118e-17 -3.00964e-37 1.5178e-56)
(0.0992075 -1.28899e-11 2.39884e-31 2.788e-17 1.11698e-37 1.80324e-57)
(0.0992075 1.08262e-11 2.26208e-31 2.49262e-17 8.24977e-38 9.30481e-58)
(0.0992075 2.24412e-11 1.67049e-31 2.11622e-17 4.55304e-38 3.46033e-58)
(0.0992075 2.97353e-11 -1.2265e-31 1.82442e-17 -2.44324e-38 1.44063e-58)
(0.0992075 3.24723e-11 6.48611e-32 1.59047e-17 9.35472e-39 4.01453e-59)
(0.0992075 3.31008e-11 -1.11348e-31 1.39723e-17 -9.90497e-39 1.25757e-58)
(0.0992075 3.22855e-11 -3.64617e-32 1.22189e-17 -1.03757e-39 1.6534e-59)
(0.0992075 3.03887e-11 -6.3119e-32 1.06738e-17 1.36827e-39 5.26077e-59)
(0.0992075 2.86525e-11 6.36401e-32 9.40286e-18 -2.50278e-39 4.38185e-59)
(0.0992075 2.55398e-11 -4.11773e-32 8.39453e-18 1.15905e-39 1.55361e-59)
(0.0992075 2.30806e-11 4.49849e-32 7.72278e-18 -5.56295e-41 1.19085e-59)
(0.0992075 1.70376e-11 -5.56324e-32 7.26614e-18 -1.23685e-39 1.65329e-59)
(0.0992075 1.07844e-11 0 7.11403e-18 0 0)
(0.0992075 -4.34357e-12 -8.6488e-32 7.48424e-18 -3.42883e-39 4.32074e-59)
(0.0992075 -1.90135e-11 -1.6172e-31 8.26992e-18 -5.88419e-39 9.4084e-59)
(0.0992075 -6.78025e-11 5.11884e-31 1.42614e-17 -5.86466e-38 5.72918e-58)
(0.108962 -5.11742e-11 -1.97012e-32 2.03293e-17 1.09685e-37 2.17841e-57)
(0.108962 -4.08944e-11 7.18845e-31 1.42705e-17 -1.47838e-37 1.30491e-56)
(0.108962 -7.98238e-11 8.11338e-31 3.85233e-17 -3.62385e-37 7.52674e-57)
(0.108962 -4.29708e-11 -3.51702e-49 3.39204e-17 9.54983e-56 5.79924e-94)
(0.108962 -1.54568e-11 2.6466e-31 3.19657e-17 1.28212e-37 2.09082e-57)
(0.108962 1.13301e-11 -2.02411e-31 2.90739e-17 -7.82866e-38 7.44479e-58)
(0.108962 2.461e-11 -1.51868e-31 2.52441e-17 -4.67475e-38 3.04415e-58)
(0.108962 3.32628e-11 -1.20334e-31 2.21518e-17 -2.74123e-38 1.36117e-58)