/*--------------------------------*- C++ -*----------------------------------*\
  =========                 |
  \\      /  F ield         | OpenFOAM: The Open Source CFD Toolbox
   \\    /   O peration     | Website:  https://openfoam.org
    \\  /    A nd           | Version:  6
     \\/     M anipulation  |
\*---------------------------------------------------------------------------*/
FoamFile
{
    version     2.0;
    format      ascii;
    class       volVectorField;
    location    "19.44";
    object      wallShearStress;
}
// * * * * * * * * * * * * * * * * * * * * * * * * * * * * * * * * * * * * * //

dimensions      [0 2 -2 0 0 0 0];

internalField   uniform (0 0 0);

boundaryField
{
    freeStream
    {
        type            symmetry;
    }
    bottomWall
    {
        type            calculated;
        value           nonuniform List<vector> 
20
(
(-0.0120725 -2.37692e-12 -3.40497e-25)
(-0.0120725 -8.57621e-14 -1.98249e-30)
(-0.0120725 4.42038e-13 -4.41876e-26)
(-0.0120725 2.71209e-13 2.46268e-33)
(-0.0120725 3.95478e-14 9.84041e-33)
(-0.0120725 -1.68928e-13 -1.96206e-26)
(-0.0120725 -2.46355e-13 -7.26476e-26)
(-0.0120725 -1.5497e-13 -1.80139e-32)
(-0.0120725 1.40864e-13 3.52341e-36)
(-0.0120725 5.54265e-13 -8.61242e-26)
(-0.0120725 9.98165e-13 -3.06131e-33)
(-0.0120725 1.35431e-12 3.95583e-25)
(-0.0120725 1.41419e-12 -9.0989e-35)
(-0.0120725 1.06193e-12 4.80017e-35)
(-0.0120725 4.59748e-13 4.03008e-26)
(-0.0120725 -1.28488e-13 -4.17902e-32)
(-0.0120725 -4.66187e-13 7.08693e-26)
(-0.0120725 -6.52337e-13 1.89054e-25)
(-0.0120725 -3.95608e-13 2.60278e-49)
(-0.0120725 -2.0617e-12 2.971e-25)
)
;
    }
    left
    {
        type            cyclic;
    }
    right
    {
        type            cyclic;
    }
    frontAndBack
    {
        type            empty;
    }
}


// ************************************************************************* //
