# y+ ()       
# Time        	patch         	min           	max           	average       
0.01          	bottom	6.741187e-03	6.741187e-03	6.741187e-03
0.02          	bottom	1.181052e-02	1.181053e-02	1.181053e-02
0.03          	bottom	2.068876e-02	2.068876e-02	2.068876e-02
0.04          	bottom	3.623975e-02	3.623978e-02	3.623977e-02
0.05          	bottom	6.347966e-02	6.347974e-02	6.347971e-02
0.06          	bottom	1.111959e-01	1.111962e-01	1.111962e-01
0.07          	bottom	1.801421e-01	1.801424e-01	1.801424e-01
0.08          	bottom	3.008125e-01	3.008131e-01	3.008131e-01
0.09          	bottom	4.690752e-01	4.690764e-01	4.690762e-01
0.1           	bottom	6.802213e-01	6.802231e-01	6.802229e-01
0.11          	bottom	9.298109e-01	9.298134e-01	9.298130e-01
0.12          	bottom	1.213675e+00	1.213678e+00	1.213678e+00
0.13          	bottom	1.527923e+00	1.527928e+00	1.527927e+00
0.14          	bottom	1.868919e+00	1.868924e+00	1.868923e+00
0.15          	bottom	2.233256e+00	2.233262e+00	2.233261e+00
0.16          	bottom	2.617749e+00	2.617756e+00	2.617754e+00
0.17          	bottom	3.019452e+00	3.019460e+00	3.019457e+00
0.18          	bottom	3.435732e+00	3.435738e+00	3.435736e+00
0.19          	bottom	3.864453e+00	3.864457e+00	3.864455e+00
0.2           	bottom	4.304390e+00	4.304394e+00	4.304392e+00
0.21          	bottom	4.756208e+00	4.756210e+00	4.756209e+00
0.22          	bottom	5.224967e+00	5.224969e+00	5.224968e+00
0.23          	bottom	5.727649e+00	5.727651e+00	5.727650e+00
0.24          	bottom	6.320260e+00	6.320261e+00	6.320261e+00
0.25          	bottom	7.215787e+00	7.215788e+00	7.215788e+00
0.26          	bottom	9.068872e+00	9.068872e+00	9.068872e+00
0.27          	bottom	1.219067e+01	1.219067e+01	1.219067e+01
0.28          	bottom	1.694913e+01	1.694913e+01	1.694913e+01
0.29          	bottom	2.404806e+01	2.404806e+01	2.404806e+01
0.3           	bottom	3.360785e+01	3.360785e+01	3.360785e+01
0.31          	bottom	4.406040e+01	4.406040e+01	4.406040e+01
0.32          	bottom	5.376386e+01	5.376386e+01	5.376386e+01
0.33          	bottom	6.182456e+01	6.182456e+01	6.182456e+01
0.34          	bottom	6.805792e+01	6.805792e+01	6.805792e+01
0.35          	bottom	7.268173e+01	7.268173e+01	7.268173e+01
0.36          	bottom	7.601744e+01	7.601744e+01	7.601744e+01
0.37          	bottom	7.839764e+01	7.839764e+01	7.839764e+01
0.38          	bottom	8.005849e+01	8.005849e+01	8.005849e+01
0.39          	bottom	8.118330e+01	8.118330e+01	8.118330e+01
0.4           	bottom	8.190931e+01	8.190931e+01	8.190931e+01
0.41          	bottom	8.233694e+01	8.233694e+01	8.233694e+01
0.42          	bottom	8.254039e+01	8.254039e+01	8.254039e+01
0.43          	bottom	8.257526e+01	8.257526e+01	8.257526e+01
0.44          	bottom	8.248155e+01	8.248155e+01	8.248155e+01
0.45          	bottom	8.228785e+01	8.228785e+01	8.228785e+01
0.46          	bottom	8.201662e+01	8.201662e+01	8.201662e+01
0.47          	bottom	8.168604e+01	8.168604e+01	8.168604e+01
0.48          	bottom	8.131081e+01	8.131081e+01	8.131081e+01
0.49          	bottom	8.089785e+01	8.089785e+01	8.089785e+01
0.5           	bottom	8.044825e+01	8.044825e+01	8.044825e+01
0.51          	bottom	7.997115e+01	7.997115e+01	7.997115e+01
0.52          	bottom	7.947665e+01	7.947665e+01	7.947665e+01
0.53          	bottom	7.897288e+01	7.897288e+01	7.897288e+01
0.54          	bottom	7.846571e+01	7.846571e+01	7.846571e+01
0.55          	bottom	7.795906e+01	7.795906e+01	7.795906e+01
0.56          	bottom	7.745522e+01	7.745522e+01	7.745522e+01
0.57          	bottom	7.695510e+01	7.695511e+01	7.695510e+01
0.58          	bottom	7.645928e+01	7.645929e+01	7.645929e+01
0.59          	bottom	7.596797e+01	7.596798e+01	7.596797e+01
0.6           	bottom	7.548117e+01	7.548117e+01	7.548117e+01
0.61          	bottom	7.499880e+01	7.499880e+01	7.499880e+01
0.62          	bottom	7.452074e+01	7.452074e+01	7.452074e+01
0.63          	bottom	7.404683e+01	7.404683e+01	7.404683e+01
0.64          	bottom	7.357692e+01	7.357692e+01	7.357692e+01
0.65          	bottom	7.311085e+01	7.311085e+01	7.311085e+01
0.66          	bottom	7.264838e+01	7.264838e+01	7.264838e+01
0.67          	bottom	7.218914e+01	7.218914e+01	7.218914e+01
0.68          	bottom	7.173273e+01	7.173273e+01	7.173273e+01
0.69          	bottom	7.127879e+01	7.127879e+01	7.127879e+01
0.7           	bottom	7.082708e+01	7.082708e+01	7.082708e+01
0.71          	bottom	7.037742e+01	7.037742e+01	7.037742e+01
0.72          	bottom	6.992966e+01	6.992967e+01	6.992967e+01
0.73          	bottom	6.948370e+01	6.948370e+01	6.948370e+01
0.74          	bottom	6.903939e+01	6.903940e+01	6.903940e+01
0.75          	bottom	6.859661e+01	6.859661e+01	6.859661e+01
0.76          	bottom	6.815515e+01	6.815515e+01	6.815515e+01
0.77          	bottom	6.771480e+01	6.771481e+01	6.771480e+01
0.78          	bottom	6.727539e+01	6.727539e+01	6.727539e+01
0.79          	bottom	6.683675e+01	6.683675e+01	6.683675e+01
0.8           	bottom	6.639878e+01	6.639878e+01	6.639878e+01
0.81          	bottom	6.596139e+01	6.596140e+01	6.596139e+01
0.82          	bottom	6.552452e+01	6.552452e+01	6.552452e+01
0.83          	bottom	6.508808e+01	6.508809e+01	6.508809e+01
0.84          	bottom	6.465200e+01	6.465200e+01	6.465200e+01
0.85          	bottom	6.421614e+01	6.421614e+01	6.421614e+01
0.86          	bottom	6.378039e+01	6.378040e+01	6.378039e+01
0.87          	bottom	6.334464e+01	6.334465e+01	6.334465e+01
0.88          	bottom	6.290881e+01	6.290881e+01	6.290881e+01
0.89          	bottom	6.247281e+01	6.247282e+01	6.247281e+01
0.9           	bottom	6.203660e+01	6.203661e+01	6.203661e+01
0.91          	bottom	6.160013e+01	6.160014e+01	6.160013e+01
0.92          	bottom	6.116334e+01	6.116334e+01	6.116334e+01
0.93          	bottom	6.072615e+01	6.072615e+01	6.072615e+01
0.94          	bottom	6.028850e+01	6.028850e+01	6.028850e+01
0.95          	bottom	5.985031e+01	5.985031e+01	5.985031e+01
0.96          	bottom	5.941153e+01	5.941153e+01	5.941153e+01
0.97          	bottom	5.897210e+01	5.897211e+01	5.897211e+01
0.98          	bottom	5.853201e+01	5.853201e+01	5.853201e+01
0.99          	bottom	5.809120e+01	5.809121e+01	5.809120e+01
1             	bottom	5.764966e+01	5.764966e+01	5.764966e+01
1.01          	bottom	5.720733e+01	5.720734e+01	5.720733e+01
1.02          	bottom	5.676419e+01	5.676420e+01	5.676419e+01
1.03          	bottom	5.632020e+01	5.632020e+01	5.632020e+01
1.04          	bottom	5.587533e+01	5.587533e+01	5.587533e+01
1.05          	bottom	5.542955e+01	5.542956e+01	5.542956e+01
1.06          	bottom	5.498287e+01	5.498287e+01	5.498287e+01
1.07          	bottom	5.453525e+01	5.453526e+01	5.453525e+01
1.08          	bottom	5.408670e+01	5.408670e+01	5.408670e+01
1.09          	bottom	5.363719e+01	5.363719e+01	5.363719e+01
1.1           	bottom	5.318671e+01	5.318672e+01	5.318671e+01
1.11          	bottom	5.273526e+01	5.273526e+01	5.273526e+01
1.12          	bottom	5.228281e+01	5.228282e+01	5.228282e+01
1.13          	bottom	5.182938e+01	5.182938e+01	5.182938e+01
1.14          	bottom	5.137496e+01	5.137496e+01	5.137496e+01
1.15          	bottom	5.091955e+01	5.091956e+01	5.091955e+01
1.16          	bottom	5.046316e+01	5.046317e+01	5.046316e+01
1.17          	bottom	5.000579e+01	5.000580e+01	5.000579e+01
1.18          	bottom	4.954744e+01	4.954745e+01	4.954744e+01
1.19          	bottom	4.908811e+01	4.908812e+01	4.908812e+01
1.2           	bottom	4.862782e+01	4.862783e+01	4.862783e+01
1.21          	bottom	4.816657e+01	4.816658e+01	4.816658e+01
1.22          	bottom	4.770438e+01	4.770439e+01	4.770438e+01
1.23          	bottom	4.724125e+01	4.724126e+01	4.724126e+01
1.24          	bottom	4.677722e+01	4.677722e+01	4.677722e+01
1.25          	bottom	4.631228e+01	4.631229e+01	4.631228e+01
1.26          	bottom	4.584646e+01	4.584647e+01	4.584646e+01
1.27          	bottom	4.537977e+01	4.537978e+01	4.537978e+01
1.28          	bottom	4.491225e+01	4.491225e+01	4.491225e+01
1.29          	bottom	4.444390e+01	4.444391e+01	4.444390e+01
1.3           	bottom	4.397476e+01	4.397477e+01	4.397477e+01
1.31          	bottom	4.350486e+01	4.350487e+01	4.350486e+01
1.32          	bottom	4.303422e+01	4.303423e+01	4.303423e+01
1.33          	bottom	4.256288e+01	4.256289e+01	4.256288e+01
1.34          	bottom	4.209087e+01	4.209087e+01	4.209087e+01
1.35          	bottom	4.161822e+01	4.161823e+01	4.161822e+01
1.36          	bottom	4.114497e+01	4.114498e+01	4.114498e+01
1.37          	bottom	4.067117e+01	4.067118e+01	4.067117e+01
1.38          	bottom	4.019685e+01	4.019686e+01	4.019686e+01
1.39          	bottom	3.972207e+01	3.972208e+01	3.972208e+01
1.4           	bottom	3.924687e+01	3.924688e+01	3.924687e+01
1.41          	bottom	3.877130e+01	3.877131e+01	3.877130e+01
1.42          	bottom	3.829541e+01	3.829542e+01	3.829541e+01
1.43          	bottom	3.781926e+01	3.781927e+01	3.781926e+01
1.44          	bottom	3.734290e+01	3.734291e+01	3.734291e+01
1.45          	bottom	3.686641e+01	3.686642e+01	3.686641e+01
1.46          	bottom	3.638983e+01	3.638984e+01	3.638983e+01
1.47          	bottom	3.591324e+01	3.591325e+01	3.591325e+01
1.48          	bottom	3.543671e+01	3.543672e+01	3.543672e+01
1.49          	bottom	3.496032e+01	3.496033e+01	3.496032e+01
1.5           	bottom	3.448413e+01	3.448414e+01	3.448413e+01
1.51          	bottom	3.400822e+01	3.400823e+01	3.400823e+01
1.52          	bottom	3.353269e+01	3.353270e+01	3.353270e+01
1.53          	bottom	3.305762e+01	3.305763e+01	3.305762e+01
1.54          	bottom	3.258309e+01	3.258310e+01	3.258309e+01
1.55          	bottom	3.210920e+01	3.210921e+01	3.210920e+01
1.56          	bottom	3.163604e+01	3.163605e+01	3.163605e+01
1.57          	bottom	3.116373e+01	3.116374e+01	3.116373e+01
1.58          	bottom	3.069235e+01	3.069236e+01	3.069236e+01
1.59          	bottom	3.022203e+01	3.022204e+01	3.022203e+01
1.6           	bottom	2.975286e+01	2.975287e+01	2.975287e+01
1.61          	bottom	2.928497e+01	2.928498e+01	2.928498e+01
1.62          	bottom	2.881848e+01	2.881849e+01	2.881848e+01
1.63          	bottom	2.835350e+01	2.835351e+01	2.835350e+01
1.64          	bottom	2.789017e+01	2.789018e+01	2.789017e+01
1.65          	bottom	2.742861e+01	2.742862e+01	2.742861e+01
1.66          	bottom	2.696895e+01	2.696896e+01	2.696896e+01
1.67          	bottom	2.651134e+01	2.651135e+01	2.651135e+01
1.68          	bottom	2.605592e+01	2.605593e+01	2.605593e+01
1.69          	bottom	2.560283e+01	2.560284e+01	2.560283e+01
1.7           	bottom	2.515221e+01	2.515222e+01	2.515222e+01
1.71          	bottom	2.470419e+01	2.470428e+01	2.470420e+01
1.72          	bottom	2.425894e+01	2.425904e+01	2.425897e+01
1.73          	bottom	2.381663e+01	2.381673e+01	2.381667e+01
1.74          	bottom	2.337743e+01	2.337753e+01	2.337747e+01
1.75          	bottom	2.294149e+01	2.294158e+01	2.294153e+01
1.76          	bottom	2.250896e+01	2.250905e+01	2.250899e+01
1.77          	bottom	2.208000e+01	2.208010e+01	2.208004e+01
1.78          	bottom	2.165479e+01	2.165489e+01	2.165483e+01
1.79          	bottom	2.123348e+01	2.123358e+01	2.123352e+01
1.8           	bottom	2.081624e+01	2.081634e+01	2.081628e+01
1.81          	bottom	2.040324e+01	2.040333e+01	2.040327e+01
1.82          	bottom	1.999463e+01	1.999472e+01	1.999466e+01
1.83          	bottom	1.959057e+01	1.959066e+01	1.959060e+01
1.84          	bottom	1.919123e+01	1.919132e+01	1.919126e+01
1.85          	bottom	1.879675e+01	1.879684e+01	1.879678e+01
1.86          	bottom	1.840730e+01	1.840739e+01	1.840733e+01
1.87          	bottom	1.802302e+01	1.802311e+01	1.802305e+01
1.88          	bottom	1.764405e+01	1.764414e+01	1.764408e+01
1.89          	bottom	1.727053e+01	1.727062e+01	1.727056e+01
1.9           	bottom	1.690260e+01	1.690269e+01	1.690263e+01
1.91          	bottom	1.654037e+01	1.654046e+01	1.654040e+01
1.92          	bottom	1.618396e+01	1.618405e+01	1.618399e+01
1.93          	bottom	1.583349e+01	1.583358e+01	1.583352e+01
1.94          	bottom	1.548905e+01	1.548914e+01	1.548908e+01
1.95          	bottom	1.515074e+01	1.515083e+01	1.515077e+01
1.96          	bottom	1.481863e+01	1.481872e+01	1.481866e+01
1.97          	bottom	1.449280e+01	1.449289e+01	1.449283e+01
1.98          	bottom	1.417331e+01	1.417339e+01	1.417333e+01
1.99          	bottom	1.390112e+01	1.390120e+01	1.390114e+01
2             	bottom	1.372327e+01	1.372334e+01	1.372329e+01
2.01          	bottom	1.361248e+01	1.361254e+01	1.361250e+01
2.02          	bottom	1.354961e+01	1.354967e+01	1.354963e+01
2.03          	bottom	1.352173e+01	1.352178e+01	1.352174e+01
2.04          	bottom	1.352007e+01	1.352011e+01	1.352008e+01
2.05          	bottom	1.353868e+01	1.353872e+01	1.353870e+01
2.06          	bottom	1.357357e+01	1.357361e+01	1.357359e+01
2.07          	bottom	1.362207e+01	1.362209e+01	1.362208e+01
2.08          	bottom	1.368241e+01	1.368243e+01	1.368242e+01
2.09          	bottom	1.375351e+01	1.375353e+01	1.375352e+01
2.1           	bottom	1.383471e+01	1.383473e+01	1.383472e+01
2.11          	bottom	1.392571e+01	1.392573e+01	1.392572e+01
2.12          	bottom	1.402642e+01	1.402644e+01	1.402644e+01
2.13          	bottom	1.413693e+01	1.413696e+01	1.413695e+01
2.14          	bottom	1.425747e+01	1.425750e+01	1.425749e+01
2.15          	bottom	1.438836e+01	1.438838e+01	1.438838e+01
2.16          	bottom	1.452998e+01	1.453001e+01	1.453000e+01
2.17          	bottom	1.468281e+01	1.468284e+01	1.468283e+01
2.18          	bottom	1.484734e+01	1.484737e+01	1.484736e+01
2.19          	bottom	1.502413e+01	1.502416e+01	1.502415e+01
2.2           	bottom	1.521376e+01	1.521380e+01	1.521379e+01
2.21          	bottom	1.541685e+01	1.541689e+01	1.541688e+01
2.22          	bottom	1.563402e+01	1.563407e+01	1.563405e+01
2.23          	bottom	1.586593e+01	1.586598e+01	1.586596e+01
2.24          	bottom	1.611322e+01	1.611328e+01	1.611326e+01
2.25          	bottom	1.637656e+01	1.637662e+01	1.637659e+01
2.26          	bottom	1.665658e+01	1.665664e+01	1.665661e+01
2.27          	bottom	1.695383e+01	1.695389e+01	1.695387e+01
2.28          	bottom	1.726822e+01	1.726829e+01	1.726827e+01
2.29          	bottom	1.760029e+01	1.760037e+01	1.760034e+01
2.3           	bottom	1.795125e+01	1.795133e+01	1.795130e+01
2.31          	bottom	1.832193e+01	1.832202e+01	1.832198e+01
2.32          	bottom	1.871273e+01	1.871283e+01	1.871279e+01
2.33          	bottom	1.912376e+01	1.912386e+01	1.912382e+01
2.34          	bottom	1.955488e+01	1.955499e+01	1.955494e+01
2.35          	bottom	2.000576e+01	2.000587e+01	2.000582e+01
2.36          	bottom	2.047589e+01	2.047601e+01	2.047596e+01
2.37          	bottom	2.096456e+01	2.096469e+01	2.096463e+01
2.38          	bottom	2.147090e+01	2.147103e+01	2.147097e+01
2.39          	bottom	2.199382e+01	2.199396e+01	2.199389e+01
2.4           	bottom	2.253207e+01	2.253221e+01	2.253215e+01
2.41          	bottom	2.308422e+01	2.308436e+01	2.308429e+01
2.42          	bottom	2.364863e+01	2.364877e+01	2.364870e+01
2.43          	bottom	2.422354e+01	2.422369e+01	2.422362e+01
2.44          	bottom	2.480717e+01	2.480732e+01	2.480725e+01
2.45          	bottom	2.539778e+01	2.539793e+01	2.539786e+01
2.46          	bottom	2.599364e+01	2.599378e+01	2.599371e+01
2.47          	bottom	2.659303e+01	2.659318e+01	2.659311e+01
2.48          	bottom	2.719430e+01	2.719445e+01	2.719438e+01
2.49          	bottom	2.779583e+01	2.779597e+01	2.779590e+01
2.5           	bottom	2.839612e+01	2.839626e+01	2.839620e+01
2.51          	bottom	2.899381e+01	2.899395e+01	2.899388e+01
2.52          	bottom	2.958770e+01	2.958784e+01	2.958778e+01
2.53          	bottom	3.017680e+01	3.017693e+01	3.017687e+01
2.54          	bottom	3.076030e+01	3.076044e+01	3.076037e+01
2.55          	bottom	3.133765e+01	3.133779e+01	3.133772e+01
2.56          	bottom	3.190853e+01	3.190866e+01	3.190860e+01
2.57          	bottom	3.247284e+01	3.247297e+01	3.247291e+01
2.58          	bottom	3.303074e+01	3.303086e+01	3.303080e+01
2.59          	bottom	3.358256e+01	3.358268e+01	3.358263e+01
2.6           	bottom	3.412879e+01	3.412891e+01	3.412885e+01
2.61          	bottom	3.466943e+01	3.466954e+01	3.466949e+01
2.62          	bottom	3.520391e+01	3.520402e+01	3.520397e+01
2.63          	bottom	3.573198e+01	3.573209e+01	3.573204e+01
2.64          	bottom	3.625264e+01	3.625276e+01	3.625270e+01
2.65          	bottom	3.676396e+01	3.676407e+01	3.676402e+01
2.66          	bottom	3.726326e+01	3.726336e+01	3.726331e+01
2.67          	bottom	3.774597e+01	3.774607e+01	3.774602e+01
2.68          	bottom	3.821286e+01	3.821296e+01	3.821291e+01
2.69          	bottom	3.866688e+01	3.866697e+01	3.866693e+01
2.7           	bottom	3.911154e+01	3.911163e+01	3.911159e+01
2.71          	bottom	3.955031e+01	3.955039e+01	3.955035e+01
2.72          	bottom	3.998647e+01	3.998655e+01	3.998651e+01
2.73          	bottom	4.042320e+01	4.042327e+01	4.042323e+01
2.74          	bottom	4.086475e+01	4.086481e+01	4.086478e+01
2.75          	bottom	4.131036e+01	4.131037e+01	4.131036e+01
2.76          	bottom	4.175727e+01	4.175728e+01	4.175727e+01
2.77          	bottom	4.220344e+01	4.220345e+01	4.220345e+01
2.78          	bottom	4.264739e+01	4.264739e+01	4.264739e+01
2.79          	bottom	4.308801e+01	4.308802e+01	4.308801e+01
2.8           	bottom	4.352455e+01	4.352455e+01	4.352455e+01
2.81          	bottom	4.395651e+01	4.395652e+01	4.395652e+01
2.82          	bottom	4.438377e+01	4.438377e+01	4.438377e+01
2.83          	bottom	4.480642e+01	4.480643e+01	4.480643e+01
2.84          	bottom	4.522477e+01	4.522477e+01	4.522477e+01
2.85          	bottom	4.563924e+01	4.563925e+01	4.563925e+01
2.86          	bottom	4.605029e+01	4.605030e+01	4.605030e+01
2.87          	bottom	4.645813e+01	4.645813e+01	4.645813e+01
2.88          	bottom	4.686283e+01	4.686283e+01	4.686283e+01
2.89          	bottom	4.726444e+01	4.726444e+01	4.726444e+01
2.9           	bottom	4.766297e+01	4.766297e+01	4.766297e+01
2.91          	bottom	4.805847e+01	4.805847e+01	4.805847e+01
2.92          	bottom	4.845101e+01	4.845101e+01	4.845101e+01
2.93          	bottom	4.884068e+01	4.884068e+01	4.884068e+01
2.94          	bottom	4.922761e+01	4.922762e+01	4.922761e+01
2.95          	bottom	4.961193e+01	4.961194e+01	4.961194e+01
2.96          	bottom	4.999378e+01	4.999378e+01	4.999378e+01
2.97          	bottom	5.037322e+01	5.037323e+01	5.037323e+01
2.98          	bottom	5.075035e+01	5.075036e+01	5.075035e+01
2.99          	bottom	5.112524e+01	5.112524e+01	5.112524e+01
3             	bottom	5.149793e+01	5.149793e+01	5.149793e+01
3.01          	bottom	5.186843e+01	5.186844e+01	5.186843e+01
3.02          	bottom	5.223674e+01	5.223675e+01	5.223674e+01
3.03          	bottom	5.260285e+01	5.260285e+01	5.260285e+01
3.04          	bottom	5.296678e+01	5.296678e+01	5.296678e+01
3.05          	bottom	5.332846e+01	5.332847e+01	5.332846e+01
3.06          	bottom	5.368784e+01	5.368784e+01	5.368784e+01
3.07          	bottom	5.404491e+01	5.404491e+01	5.404491e+01
3.08          	bottom	5.439971e+01	5.439971e+01	5.439971e+01
3.09          	bottom	5.475227e+01	5.475228e+01	5.475227e+01
3.1           	bottom	5.510263e+01	5.510264e+01	5.510264e+01
3.11          	bottom	5.545083e+01	5.545083e+01	5.545083e+01
3.12          	bottom	5.579691e+01	5.579691e+01	5.579691e+01
3.13          	bottom	5.614089e+01	5.614089e+01	5.614089e+01
3.14          	bottom	5.648281e+01	5.648281e+01	5.648281e+01
3.15          	bottom	5.682269e+01	5.682269e+01	5.682269e+01
3.16          	bottom	5.716052e+01	5.716053e+01	5.716053e+01
3.17          	bottom	5.749633e+01	5.749633e+01	5.749633e+01
3.18          	bottom	5.783011e+01	5.783011e+01	5.783011e+01
3.19          	bottom	5.816186e+01	5.816186e+01	5.816186e+01
3.2           	bottom	5.849157e+01	5.849157e+01	5.849157e+01
3.21          	bottom	5.881924e+01	5.881924e+01	5.881924e+01
3.22          	bottom	5.914483e+01	5.914484e+01	5.914483e+01
3.23          	bottom	5.946834e+01	5.946834e+01	5.946834e+01
3.24          	bottom	5.978973e+01	5.978974e+01	5.978973e+01
3.25          	bottom	6.010900e+01	6.010900e+01	6.010900e+01
3.26          	bottom	6.042611e+01	6.042611e+01	6.042611e+01
3.27          	bottom	6.074107e+01	6.074107e+01	6.074107e+01
3.28          	bottom	6.105385e+01	6.105385e+01	6.105385e+01
3.29          	bottom	6.136446e+01	6.136446e+01	6.136446e+01
3.3           	bottom	6.167288e+01	6.167288e+01	6.167288e+01
3.31          	bottom	6.197912e+01	6.197912e+01	6.197912e+01
3.32          	bottom	6.228316e+01	6.228316e+01	6.228316e+01
3.33          	bottom	6.258498e+01	6.258499e+01	6.258498e+01
3.34          	bottom	6.288457e+01	6.288457e+01	6.288457e+01
3.35          	bottom	6.318190e+01	6.318190e+01	6.318190e+01
3.36          	bottom	6.347697e+01	6.347697e+01	6.347697e+01
3.37          	bottom	6.376970e+01	6.376970e+01	6.376970e+01
3.38          	bottom	6.406000e+01	6.406001e+01	6.406000e+01
3.39          	bottom	6.434787e+01	6.434787e+01	6.434787e+01
3.4           	bottom	6.463330e+01	6.463330e+01	6.463330e+01
3.41          	bottom	6.491632e+01	6.491632e+01	6.491632e+01
3.42          	bottom	6.519694e+01	6.519694e+01	6.519694e+01
3.43          	bottom	6.547517e+01	6.547517e+01	6.547517e+01
3.44          	bottom	6.575103e+01	6.575103e+01	6.575103e+01
3.45          	bottom	6.602451e+01	6.602451e+01	6.602451e+01
3.46          	bottom	6.629562e+01	6.629562e+01	6.629562e+01
3.47          	bottom	6.656435e+01	6.656435e+01	6.656435e+01
3.48          	bottom	6.683069e+01	6.683070e+01	6.683069e+01
3.49          	bottom	6.709465e+01	6.709466e+01	6.709465e+01
3.5           	bottom	6.735623e+01	6.735623e+01	6.735623e+01
3.51          	bottom	6.761541e+01	6.761541e+01	6.761541e+01
3.52          	bottom	6.787221e+01	6.787221e+01	6.787221e+01
3.53          	bottom	6.812660e+01	6.812661e+01	6.812661e+01
3.54          	bottom	6.837860e+01	6.837861e+01	6.837861e+01
3.55          	bottom	6.862820e+01	6.862820e+01	6.862820e+01
3.56          	bottom	6.887537e+01	6.887538e+01	6.887537e+01
3.57          	bottom	6.912013e+01	6.912013e+01	6.912013e+01
3.58          	bottom	6.936245e+01	6.936245e+01	6.936245e+01
3.59          	bottom	6.960234e+01	6.960234e+01	6.960234e+01
3.6           	bottom	6.983979e+01	6.983979e+01	6.983979e+01
3.61          	bottom	7.007479e+01	7.007480e+01	7.007479e+01
3.62          	bottom	7.030735e+01	7.030735e+01	7.030735e+01
3.63          	bottom	7.053746e+01	7.053746e+01	7.053746e+01
3.64          	bottom	7.076510e+01	7.076511e+01	7.076511e+01
3.65          	bottom	7.099029e+01	7.099029e+01	7.099029e+01
3.66          	bottom	7.121300e+01	7.121300e+01	7.121300e+01
3.67          	bottom	7.143323e+01	7.143324e+01	7.143323e+01
3.68          	bottom	7.165099e+01	7.165099e+01	7.165099e+01
3.69          	bottom	7.186625e+01	7.186625e+01	7.186625e+01
3.7           	bottom	7.207896e+01	7.207897e+01	7.207897e+01
3.71          	bottom	7.228899e+01	7.228900e+01	7.228899e+01
3.72          	bottom	7.249623e+01	7.249624e+01	7.249623e+01
3.73          	bottom	7.270064e+01	7.270065e+01	7.270065e+01
3.74          	bottom	7.290223e+01	7.290223e+01	7.290223e+01
3.75          	bottom	7.310102e+01	7.310102e+01	7.310102e+01
3.76          	bottom	7.329703e+01	7.329704e+01	7.329703e+01
3.77          	bottom	7.349032e+01	7.349032e+01	7.349032e+01
3.78          	bottom	7.368090e+01	7.368090e+01	7.368090e+01
3.79          	bottom	7.386881e+01	7.386881e+01	7.386881e+01
3.8           	bottom	7.405407e+01	7.405407e+01	7.405407e+01
3.81          	bottom	7.423669e+01	7.423670e+01	7.423669e+01
3.82          	bottom	7.441641e+01	7.441641e+01	7.441641e+01
3.83          	bottom	7.459292e+01	7.459293e+01	7.459293e+01
3.84          	bottom	7.476621e+01	7.476621e+01	7.476621e+01
3.85          	bottom	7.493634e+01	7.493635e+01	7.493634e+01
3.86          	bottom	7.510345e+01	7.510345e+01	7.510345e+01
3.87          	bottom	7.526763e+01	7.526763e+01	7.526763e+01
3.88          	bottom	7.542896e+01	7.542897e+01	7.542897e+01
3.89          	bottom	7.558753e+01	7.558753e+01	7.558753e+01
3.9           	bottom	7.574337e+01	7.574338e+01	7.574338e+01
3.91          	bottom	7.589653e+01	7.589653e+01	7.589653e+01
3.92          	bottom	7.604701e+01	7.604702e+01	7.604701e+01
3.93          	bottom	7.619485e+01	7.619485e+01	7.619485e+01
3.94          	bottom	7.634004e+01	7.634004e+01	7.634004e+01
3.95          	bottom	7.648259e+01	7.648260e+01	7.648259e+01
3.96          	bottom	7.662251e+01	7.662251e+01	7.662251e+01
3.97          	bottom	7.675978e+01	7.675978e+01	7.675978e+01
3.98          	bottom	7.689441e+01	7.689442e+01	7.689442e+01
3.99          	bottom	7.702640e+01	7.702641e+01	7.702640e+01
4             	bottom	7.715574e+01	7.715574e+01	7.715574e+01
4.01          	bottom	7.728242e+01	7.728243e+01	7.728242e+01
4.02          	bottom	7.740645e+01	7.740645e+01	7.740645e+01
4.03          	bottom	7.752781e+01	7.752781e+01	7.752781e+01
4.04          	bottom	7.764646e+01	7.764647e+01	7.764646e+01
4.05          	bottom	7.776236e+01	7.776236e+01	7.776236e+01
4.06          	bottom	7.787543e+01	7.787544e+01	7.787544e+01
4.07          	bottom	7.798568e+01	7.798569e+01	7.798568e+01
4.08          	bottom	7.809310e+01	7.809310e+01	7.809310e+01
4.09          	bottom	7.819770e+01	7.819770e+01	7.819770e+01
4.1           	bottom	7.829949e+01	7.829949e+01	7.829949e+01
4.11          	bottom	7.839849e+01	7.839849e+01	7.839849e+01
4.12          	bottom	7.849471e+01	7.849471e+01	7.849471e+01
4.13          	bottom	7.858817e+01	7.858818e+01	7.858817e+01
4.14          	bottom	7.867888e+01	7.867889e+01	7.867888e+01
4.15          	bottom	7.876685e+01	7.876685e+01	7.876685e+01
4.16          	bottom	7.885208e+01	7.885208e+01	7.885208e+01
4.17          	bottom	7.893458e+01	7.893458e+01	7.893458e+01
4.18          	bottom	7.901435e+01	7.901435e+01	7.901435e+01
4.19          	bottom	7.909140e+01	7.909140e+01	7.909140e+01
4.2           	bottom	7.916573e+01	7.916574e+01	7.916573e+01
4.21          	bottom	7.923735e+01	7.923735e+01	7.923735e+01
4.22          	bottom	7.930625e+01	7.930625e+01	7.930625e+01
4.23          	bottom	7.937243e+01	7.937243e+01	7.937243e+01
4.24          	bottom	7.943588e+01	7.943588e+01	7.943588e+01
4.25          	bottom	7.949656e+01	7.949657e+01	7.949656e+01
4.26          	bottom	7.955444e+01	7.955445e+01	7.955444e+01
4.27          	bottom	7.960950e+01	7.960950e+01	7.960950e+01
4.28          	bottom	7.966171e+01	7.966172e+01	7.966172e+01
4.29          	bottom	7.971110e+01	7.971110e+01	7.971110e+01
4.3           	bottom	7.975766e+01	7.975766e+01	7.975766e+01
4.31          	bottom	7.980140e+01	7.980140e+01	7.980140e+01
4.32          	bottom	7.984233e+01	7.984233e+01	7.984233e+01
4.33          	bottom	7.988047e+01	7.988047e+01	7.988047e+01
4.34          	bottom	7.991581e+01	7.991581e+01	7.991581e+01
4.35          	bottom	7.994837e+01	7.994837e+01	7.994837e+01
4.36          	bottom	7.997815e+01	7.997815e+01	7.997815e+01
4.37          	bottom	8.000514e+01	8.000514e+01	8.000514e+01
4.38          	bottom	8.002936e+01	8.002936e+01	8.002936e+01
4.39          	bottom	8.005081e+01	8.005081e+01	8.005081e+01
4.4           	bottom	8.006948e+01	8.006948e+01	8.006948e+01
4.41          	bottom	8.008537e+01	8.008537e+01	8.008537e+01
4.42          	bottom	8.009847e+01	8.009847e+01	8.009847e+01
4.43          	bottom	8.010875e+01	8.010875e+01	8.010875e+01
4.44          	bottom	8.011618e+01	8.011618e+01	8.011618e+01
4.45          	bottom	8.012074e+01	8.012074e+01	8.012074e+01
4.46          	bottom	8.012244e+01	8.012244e+01	8.012244e+01
4.47          	bottom	8.012127e+01	8.012127e+01	8.012127e+01
4.48          	bottom	8.011724e+01	8.011724e+01	8.011724e+01
4.49          	bottom	8.011035e+01	8.011035e+01	8.011035e+01
4.5           	bottom	8.010063e+01	8.010063e+01	8.010063e+01
4.51          	bottom	8.008806e+01	8.008806e+01	8.008806e+01
4.52          	bottom	8.007266e+01	8.007266e+01	8.007266e+01
4.53          	bottom	8.005443e+01	8.005443e+01	8.005443e+01
4.54          	bottom	8.003338e+01	8.003338e+01	8.003338e+01
4.55          	bottom	8.000951e+01	8.000951e+01	8.000951e+01
4.56          	bottom	7.998281e+01	7.998282e+01	7.998282e+01
4.57          	bottom	7.995329e+01	7.995329e+01	7.995329e+01
4.58          	bottom	7.992092e+01	7.992092e+01	7.992092e+01
4.59          	bottom	7.988567e+01	7.988568e+01	7.988568e+01
4.6           	bottom	7.984755e+01	7.984756e+01	7.984755e+01
4.61          	bottom	7.980655e+01	7.980655e+01	7.980655e+01
4.62          	bottom	7.976266e+01	7.976267e+01	7.976267e+01
4.63          	bottom	7.971590e+01	7.971591e+01	7.971590e+01
4.64          	bottom	7.966627e+01	7.966627e+01	7.966627e+01
4.65          	bottom	7.961378e+01	7.961378e+01	7.961378e+01
4.66          	bottom	7.955843e+01	7.955843e+01	7.955843e+01
4.67          	bottom	7.950023e+01	7.950023e+01	7.950023e+01
4.68          	bottom	7.943918e+01	7.943919e+01	7.943918e+01
4.69          	bottom	7.937529e+01	7.937530e+01	7.937530e+01
4.7           	bottom	7.930856e+01	7.930856e+01	7.930856e+01
4.71          	bottom	7.923895e+01	7.923896e+01	7.923896e+01
4.72          	bottom	7.916648e+01	7.916649e+01	7.916648e+01
4.73          	bottom	7.909113e+01	7.909113e+01	7.909113e+01
4.74          	bottom	7.901290e+01	7.901290e+01	7.901290e+01
4.75          	bottom	7.893178e+01	7.893179e+01	7.893179e+01
4.76          	bottom	7.884780e+01	7.884781e+01	7.884780e+01
4.77          	bottom	7.876095e+01	7.876095e+01	7.876095e+01
4.78          	bottom	7.867123e+01	7.867124e+01	7.867124e+01
4.79          	bottom	7.857866e+01	7.857867e+01	7.857867e+01
4.8           	bottom	7.848324e+01	7.848325e+01	7.848325e+01
4.81          	bottom	7.838497e+01	7.838497e+01	7.838497e+01
4.82          	bottom	7.828383e+01	7.828384e+01	7.828383e+01
4.83          	bottom	7.817982e+01	7.817983e+01	7.817983e+01
4.84          	bottom	7.807294e+01	7.807295e+01	7.807295e+01
4.85          	bottom	7.796319e+01	7.796319e+01	7.796319e+01
4.86          	bottom	7.785056e+01	7.785056e+01	7.785056e+01
4.87          	bottom	7.773506e+01	7.773506e+01	7.773506e+01
4.88          	bottom	7.761669e+01	7.761670e+01	7.761670e+01
4.89          	bottom	7.749546e+01	7.749547e+01	7.749547e+01
4.9           	bottom	7.737138e+01	7.737139e+01	7.737139e+01