# y+ ()       
# Time        	patch         	min           	max           	average       
0.01          	bottom	1.324287e-02	1.324287e-02	1.324287e-02
0.02          	bottom	2.831519e+01	2.831520e+01	2.831519e+01
0.03          	bottom	4.028762e+01	4.028762e+01	4.028762e+01
0.04          	bottom	4.579294e+01	4.579294e+01	4.579294e+01
0.05          	bottom	4.793971e+01	4.793974e+01	4.793972e+01
0.06          	bottom	4.856933e+01	4.856933e+01	4.856933e+01
0.07          	bottom	4.876420e+01	4.876420e+01	4.876420e+01
0.08          	bottom	4.915106e+01	4.915106e+01	4.915106e+01
0.09          	bottom	5.006743e+01	5.006743e+01	5.006743e+01
0.1           	bottom	5.165241e+01	5.165242e+01	5.165241e+01
0.11          	bottom	5.366099e+01	5.366100e+01	5.366100e+01
0.12          	bottom	5.552485e+01	5.552485e+01	5.552485e+01
0.13          	bottom	5.683678e+01	5.683679e+01	5.683678e+01
0.14          	bottom	5.757367e+01	5.757367e+01	5.757367e+01
0.15          	bottom	5.788451e+01	5.788451e+01	5.788451e+01
0.16          	bottom	5.791776e+01	5.791777e+01	5.791777e+01
0.17          	bottom	5.778792e+01	5.778792e+01	5.778792e+01
0.18          	bottom	5.757079e+01	5.757079e+01	5.757079e+01
0.19          	bottom	5.730935e+01	5.730935e+01	5.730935e+01
0.2           	bottom	5.702777e+01	5.702777e+01	5.702777e+01
0.21          	bottom	5.673980e+01	5.673980e+01	5.673980e+01
0.22          	bottom	5.645226e+01	5.645226e+01	5.645226e+01
0.23          	bottom	5.616828e+01	5.616828e+01	5.616828e+01
0.24          	bottom	5.588948e+01	5.588948e+01	5.588948e+01
0.25          	bottom	5.561655e+01	5.561655e+01	5.561655e+01
0.26          	bottom	5.534948e+01	5.534948e+01	5.534948e+01
0.27          	bottom	5.508803e+01	5.508803e+01	5.508803e+01
0.28          	bottom	5.483196e+01	5.483196e+01	5.483196e+01
0.29          	bottom	5.458095e+01	5.458095e+01	5.458095e+01
0.3           	bottom	5.433461e+01	5.433461e+01	5.433461e+01
0.31          	bottom	5.409257e+01	5.409257e+01	5.409257e+01
0.32          	bottom	5.385451e+01	5.385451e+01	5.385451e+01
0.33          	bottom	5.362012e+01	5.362012e+01	5.362012e+01
0.34          	bottom	5.338909e+01	5.338909e+01	5.338909e+01
0.35          	bottom	5.316114e+01	5.316114e+01	5.316114e+01
0.36          	bottom	5.293601e+01	5.293601e+01	5.293601e+01
0.37          	bottom	5.271347e+01	5.271347e+01	5.271347e+01
0.38          	bottom	5.249329e+01	5.249329e+01	5.249329e+01
0.39          	bottom	5.227527e+01	5.227527e+01	5.227527e+01
0.4           	bottom	5.205920e+01	5.205920e+01	5.205920e+01
0.41          	bottom	5.184491e+01	5.184491e+01	5.184491e+01
0.42          	bottom	5.163224e+01	5.163224e+01	5.163224e+01
0.43          	bottom	5.142101e+01	5.142101e+01	5.142101e+01
0.44          	bottom	5.121110e+01	5.121110e+01	5.121110e+01
0.45          	bottom	5.100235e+01	5.100236e+01	5.100235e+01
0.46          	bottom	5.079466e+01	5.079466e+01	5.079466e+01
0.47          	bottom	5.058789e+01	5.058789e+01	5.058789e+01
0.48          	bottom	5.038193e+01	5.038193e+01	5.038193e+01
0.49          	bottom	5.017667e+01	5.017667e+01	5.017667e+01
0.5           	bottom	4.997203e+01	4.997203e+01	4.997203e+01
0.51          	bottom	4.976789e+01	4.976789e+01	4.976789e+01
0.52          	bottom	4.956419e+01	4.956419e+01	4.956419e+01
0.53          	bottom	4.936082e+01	4.936082e+01	4.936082e+01
0.54          	bottom	4.915771e+01	4.915771e+01	4.915771e+01
0.55          	bottom	4.895479e+01	4.895479e+01	4.895479e+01
0.56          	bottom	4.875199e+01	4.875199e+01	4.875199e+01
0.57          	bottom	4.854924e+01	4.854924e+01	4.854924e+01
0.58          	bottom	4.834647e+01	4.834647e+01	4.834647e+01
0.59          	bottom	4.814364e+01	4.814364e+01	4.814364e+01
0.6           	bottom	4.794068e+01	4.794068e+01	4.794068e+01
0.61          	bottom	4.773754e+01	4.773754e+01	4.773754e+01
0.62          	bottom	4.753418e+01	4.753418e+01	4.753418e+01
0.63          	bottom	4.733053e+01	4.733053e+01	4.733053e+01
0.64          	bottom	4.712656e+01	4.712656e+01	4.712656e+01
0.65          	bottom	4.692224e+01	4.692224e+01	4.692224e+01
0.66          	bottom	4.671750e+01	4.671751e+01	4.671751e+01
0.67          	bottom	4.651232e+01	4.651232e+01	4.651232e+01
0.68          	bottom	4.630666e+01	4.630666e+01	4.630666e+01
0.69          	bottom	4.610048e+01	4.610048e+01	4.610048e+01
0.7           	bottom	4.589375e+01	4.589376e+01	4.589375e+01
0.71          	bottom	4.568645e+01	4.568645e+01	4.568645e+01
0.72          	bottom	4.547854e+01	4.547855e+01	4.547854e+01
0.73          	bottom	4.527000e+01	4.527000e+01	4.527000e+01
0.74          	bottom	4.506080e+01	4.506080e+01	4.506080e+01
0.75          	bottom	4.485091e+01	4.485091e+01	4.485091e+01
0.76          	bottom	4.464031e+01	4.464031e+01	4.464031e+01
0.77          	bottom	4.442898e+01	4.442898e+01	4.442898e+01
0.78          	bottom	4.421689e+01	4.421690e+01	4.421689e+01
0.79          	bottom	4.400403e+01	4.400403e+01	4.400403e+01
0.8           	bottom	4.379037e+01	4.379038e+01	4.379037e+01
0.81          	bottom	4.357590e+01	4.357591e+01	4.357590e+01
0.82          	bottom	4.336060e+01	4.336060e+01	4.336060e+01
0.83          	bottom	4.314445e+01	4.314446e+01	4.314445e+01
0.84          	bottom	4.292744e+01	4.292744e+01	4.292744e+01
0.85          	bottom	4.270955e+01	4.270955e+01	4.270955e+01
0.86          	bottom	4.249077e+01	4.249077e+01	4.249077e+01
0.87          	bottom	4.227108e+01	4.227108e+01	4.227108e+01
0.88          	bottom	4.205047e+01	4.205048e+01	4.205048e+01
0.89          	bottom	4.182894e+01	4.182895e+01	4.182894e+01
0.9           	bottom	4.160647e+01	4.160647e+01	4.160647e+01
0.91          	bottom	4.138305e+01	4.138305e+01	4.138305e+01
0.92          	bottom	4.115867e+01	4.115867e+01	4.115867e+01
0.93          	bottom	4.093332e+01	4.093332e+01	4.093332e+01
0.94          	bottom	4.070700e+01	4.070700e+01	4.070700e+01
0.95          	bottom	4.047969e+01	4.047969e+01	4.047969e+01
0.96          	bottom	4.025139e+01	4.025139e+01	4.025139e+01
0.97          	bottom	4.002209e+01	4.002209e+01	4.002209e+01
0.98          	bottom	3.979178e+01	3.979179e+01	3.979178e+01
0.99          	bottom	3.956047e+01	3.956047e+01	3.956047e+01
1             	bottom	3.932813e+01	3.932814e+01	3.932813e+01
1.01          	bottom	3.909478e+01	3.909478e+01	3.909478e+01
1.02          	bottom	3.886039e+01	3.886039e+01	3.886039e+01
1.03          	bottom	3.862497e+01	3.862498e+01	3.862498e+01
1.04          	bottom	3.838852e+01	3.838853e+01	3.838852e+01
1.05          	bottom	3.815103e+01	3.815103e+01	3.815103e+01
1.06          	bottom	3.791249e+01	3.791250e+01	3.791249e+01
1.07          	bottom	3.767291e+01	3.767291e+01	3.767291e+01
1.08          	bottom	3.743227e+01	3.743228e+01	3.743228e+01
1.09          	bottom	3.719058e+01	3.719061e+01	3.719059e+01
1.1           	bottom	3.694785e+01	3.694788e+01	3.694786e+01
1.11          	bottom	3.670405e+01	3.670409e+01	3.670407e+01
1.12          	bottom	3.645920e+01	3.645923e+01	3.645922e+01
1.13          	bottom	3.621330e+01	3.621333e+01	3.621331e+01
1.14          	bottom	3.596633e+01	3.596636e+01	3.596634e+01
1.15          	bottom	3.571830e+01	3.571833e+01	3.571832e+01
1.16          	bottom	3.546922e+01	3.546925e+01	3.546923e+01
1.17          	bottom	3.521908e+01	3.521911e+01	3.521909e+01
1.18          	bottom	3.496788e+01	3.496791e+01	3.496789e+01
1.19          	bottom	3.471563e+01	3.471566e+01	3.471564e+01
1.2           	bottom	3.446232e+01	3.446235e+01	3.446233e+01
1.21          	bottom	3.420796e+01	3.420799e+01	3.420798e+01
1.22          	bottom	3.395255e+01	3.395258e+01	3.395257e+01
1.23          	bottom	3.369609e+01	3.369612e+01	3.369611e+01
1.24          	bottom	3.343859e+01	3.343862e+01	3.343861e+01
1.25          	bottom	3.318005e+01	3.318008e+01	3.318006e+01
1.26          	bottom	3.292047e+01	3.292049e+01	3.292048e+01
1.27          	bottom	3.265985e+01	3.265988e+01	3.265987e+01
1.28          	bottom	3.239821e+01	3.239824e+01	3.239822e+01
1.29          	bottom	3.213554e+01	3.213557e+01	3.213556e+01
1.3           	bottom	3.187186e+01	3.187189e+01	3.187187e+01
1.31          	bottom	3.160717e+01	3.160719e+01	3.160718e+01
1.32          	bottom	3.134147e+01	3.134149e+01	3.134148e+01
1.33          	bottom	3.107477e+01	3.107480e+01	3.107478e+01
1.34          	bottom	3.080708e+01	3.080711e+01	3.080709e+01
1.35          	bottom	3.053841e+01	3.053844e+01	3.053842e+01
1.36          	bottom	3.026877e+01	3.026879e+01	3.026878e+01
1.37          	bottom	2.999816e+01	2.999818e+01	2.999817e+01
1.38          	bottom	2.972659e+01	2.972662e+01	2.972661e+01
1.39          	bottom	2.945409e+01	2.945412e+01	2.945410e+01
1.4           	bottom	2.918065e+01	2.918068e+01	2.918066e+01
1.41          	bottom	2.890629e+01	2.890632e+01	2.890631e+01
1.42          	bottom	2.863103e+01	2.863106e+01	2.863104e+01
1.43          	bottom	2.835488e+01	2.835490e+01	2.835489e+01
1.44          	bottom	2.807784e+01	2.807787e+01	2.807786e+01
1.45          	bottom	2.779995e+01	2.779998e+01	2.779996e+01
1.46          	bottom	2.752121e+01	2.752124e+01	2.752123e+01
1.47          	bottom	2.724165e+01	2.724168e+01	2.724166e+01
1.48          	bottom	2.696128e+01	2.696131e+01	2.696129e+01
1.49          	bottom	2.668012e+01	2.668015e+01	2.668014e+01
1.5           	bottom	2.639820e+01	2.639823e+01	2.639822e+01
1.51          	bottom	2.611554e+01	2.611557e+01	2.611556e+01
1.52          	bottom	2.583217e+01	2.583220e+01	2.583218e+01
1.53          	bottom	2.554811e+01	2.554814e+01	2.554812e+01
1.54          	bottom	2.526339e+01	2.526342e+01	2.526340e+01
1.55          	bottom	2.497804e+01	2.497807e+01	2.497806e+01
1.56          	bottom	2.469210e+01	2.469213e+01	2.469212e+01
1.57          	bottom	2.440560e+01	2.440563e+01	2.440562e+01
1.58          	bottom	2.411858e+01	2.411861e+01	2.411859e+01
1.59          	bottom	2.383108e+01	2.383111e+01	2.383109e+01
1.6           	bottom	2.354314e+01	2.354317e+01	2.354315e+01
1.61          	bottom	2.325481e+01	2.325484e+01	2.325482e+01
1.62          	bottom	2.296614e+01	2.296616e+01	2.296615e+01
1.63          	bottom	2.267718e+01	2.267720e+01	2.267719e+01
1.64          	bottom	2.238798e+01	2.238801e+01	2.238800e+01
1.65          	bottom	2.209862e+01	2.209865e+01	2.209863e+01
1.66          	bottom	2.180915e+01	2.180918e+01	2.180916e+01
1.67          	bottom	2.151965e+01	2.151968e+01	2.151966e+01
1.68          	bottom	2.123018e+01	2.123021e+01	2.123020e+01
1.69          	bottom	2.094084e+01	2.094087e+01	2.094085e+01
1.7           	bottom	2.065170e+01	2.065173e+01	2.065171e+01
1.71          	bottom	2.036286e+01	2.036289e+01	2.036288e+01
1.72          	bottom	2.007442e+01	2.007445e+01	2.007443e+01
1.73          	bottom	1.978649e+01	1.978652e+01	1.978650e+01
1.74          	bottom	1.949917e+01	1.949920e+01	1.949918e+01
1.75          	bottom	1.921260e+01	1.921262e+01	1.921261e+01
1.76          	bottom	1.892690e+01	1.892692e+01	1.892691e+01
1.77          	bottom	1.864221e+01	1.864224e+01	1.864222e+01
1.78          	bottom	1.835869e+01	1.835871e+01	1.835870e+01
1.79          	bottom	1.807649e+01	1.807652e+01	1.807650e+01
1.8           	bottom	1.779580e+01	1.779582e+01	1.779581e+01
1.81          	bottom	1.751679e+01	1.751682e+01	1.751680e+01
1.82          	bottom	1.723967e+01	1.723969e+01	1.723968e+01
1.83          	bottom	1.696464e+01	1.696467e+01	1.696465e+01
1.84          	bottom	1.669195e+01	1.669197e+01	1.669196e+01
1.85          	bottom	1.642182e+01	1.642184e+01	1.642183e+01
1.86          	bottom	1.615451e+01	1.615454e+01	1.615452e+01
1.87          	bottom	1.589032e+01	1.589034e+01	1.589033e+01
1.88          	bottom	1.562952e+01	1.562954e+01	1.562953e+01
1.89          	bottom	1.537243e+01	1.537246e+01	1.537244e+01
1.9           	bottom	1.511939e+01	1.511941e+01	1.511940e+01
1.91          	bottom	1.487074e+01	1.487076e+01	1.487075e+01
1.92          	bottom	1.462686e+01	1.462688e+01	1.462686e+01
1.93          	bottom	1.438814e+01	1.438816e+01	1.438815e+01
1.94          	bottom	1.415499e+01	1.415502e+01	1.415500e+01
1.95          	bottom	1.392786e+01	1.392788e+01	1.392787e+01
1.96          	bottom	1.370720e+01	1.370722e+01	1.370720e+01
1.97          	bottom	1.349348e+01	1.349350e+01	1.349349e+01
1.98          	bottom	1.328720e+01	1.328723e+01	1.328721e+01
1.99          	bottom	1.308889e+01	1.308891e+01	1.308890e+01
2             	bottom	1.289907e+01	1.289909e+01	1.289908e+01
2.01          	bottom	1.271829e+01	1.271831e+01	1.271830e+01
2.02          	bottom	1.254713e+01	1.254715e+01	1.254714e+01
2.03          	bottom	1.238616e+01	1.238618e+01	1.238617e+01
2.04          	bottom	1.223599e+01	1.223601e+01	1.223600e+01
2.05          	bottom	1.209721e+01	1.209722e+01	1.209721e+01
2.06          	bottom	1.197039e+01	1.197040e+01	1.197039e+01
2.07          	bottom	1.185610e+01	1.185612e+01	1.185610e+01
2.08          	bottom	1.175490e+01	1.175492e+01	1.175490e+01
2.09          	bottom	1.166730e+01	1.166732e+01	1.166731e+01
2.1           	bottom	1.159383e+01	1.159385e+01	1.159384e+01
2.11          	bottom	1.153497e+01	1.153499e+01	1.153498e+01
2.12          	bottom	1.152411e+01	1.152412e+01	1.152412e+01
2.13          	bottom	1.150551e+01	1.150552e+01	1.150551e+01
2.14          	bottom	1.147425e+01	1.147426e+01	1.147426e+01
2.15          	bottom	1.143131e+01	1.143132e+01	1.143131e+01
2.16          	bottom	1.137764e+01	1.137765e+01	1.137765e+01
2.17          	bottom	1.131420e+01	1.131422e+01	1.131421e+01
2.18          	bottom	1.124196e+01	1.124196e+01	1.124196e+01
2.19          	bottom	1.116182e+01	1.116183e+01	1.116182e+01
2.2           	bottom	1.107469e+01	1.107470e+01	1.107469e+01
2.21          	bottom	1.098141e+01	1.098142e+01	1.098141e+01
2.22          	bottom	1.088277e+01	1.088278e+01	1.088277e+01
2.23          	bottom	1.077952e+01	1.077953e+01	1.077952e+01
2.24          	bottom	1.067234e+01	1.067235e+01	1.067234e+01
2.25          	bottom	1.056186e+01	1.056187e+01	1.056186e+01
2.26          	bottom	1.044866e+01	1.044867e+01	1.044866e+01
2.27          	bottom	1.033328e+01	1.033329e+01	1.033328e+01
2.28          	bottom	1.021621e+01	1.021622e+01	1.021621e+01
2.29          	bottom	1.009789e+01	1.009790e+01	1.009790e+01
2.3           	bottom	9.978741e+00	9.978754e+00	9.978747e+00
2.31          	bottom	9.859140e+00	9.859154e+00	9.859147e+00
2.32          	bottom	9.739427e+00	9.739441e+00	9.739434e+00
2.33          	bottom	9.619475e+00	9.619490e+00	9.619482e+00
2.34          	bottom	9.499102e+00	9.499117e+00	9.499110e+00
2.35          	bottom	9.379259e+00	9.379275e+00	9.379267e+00
2.36          	bottom	9.262087e+00	9.262103e+00	9.262095e+00
2.37          	bottom	9.149520e+00	9.149535e+00	9.149528e+00
2.38          	bottom	9.043087e+00	9.043102e+00	9.043095e+00
2.39          	bottom	8.944025e+00	8.944039e+00	8.944033e+00
2.4           	bottom	8.853360e+00	8.853373e+00	8.853367e+00
2.41          	bottom	8.771968e+00	8.771979e+00	8.771974e+00
2.42          	bottom	8.700627e+00	8.700637e+00	8.700632e+00
2.43          	bottom	8.640057e+00	8.640065e+00	8.640061e+00
2.44          	bottom	8.590956e+00	8.590963e+00	8.590960e+00
2.45          	bottom	8.554029e+00	8.554034e+00	8.554032e+00
2.46          	bottom	8.530019e+00	8.530022e+00	8.530021e+00
2.47          	bottom	8.519729e+00	8.519730e+00	8.519730e+00
2.48          	bottom	8.524051e+00	8.524054e+00	8.524053e+00
2.49          	bottom	8.543996e+00	8.544000e+00	8.543999e+00
2.5           	bottom	8.580695e+00	8.580702e+00	8.580699e+00
2.51          	bottom	8.635434e+00	8.635443e+00	8.635439e+00
2.52          	bottom	8.709726e+00	8.709740e+00	8.709734e+00
2.53          	bottom	8.805386e+00	8.805402e+00	8.805395e+00
2.54          	bottom	8.924604e+00	8.924625e+00	8.924616e+00
2.55          	bottom	9.069979e+00	9.070005e+00	9.069993e+00
2.56          	bottom	9.244512e+00	9.244542e+00	9.244528e+00
2.57          	bottom	9.451631e+00	9.451667e+00	9.451650e+00
2.58          	bottom	9.695225e+00	9.695268e+00	9.695248e+00
2.59          	bottom	9.979680e+00	9.979730e+00	9.979706e+00
2.6           	bottom	1.030990e+01	1.030996e+01	1.030993e+01
2.61          	bottom	1.069133e+01	1.069140e+01	1.069137e+01
2.62          	bottom	1.112991e+01	1.112998e+01	1.112995e+01
2.63          	bottom	1.255134e+01	1.255142e+01	1.255138e+01
2.64          	bottom	1.735200e+01	1.735222e+01	1.735212e+01
2.65          	bottom	2.070087e+01	2.070100e+01	2.070090e+01
2.66          	bottom	2.301907e+01	2.301917e+01	2.301912e+01
2.67          	bottom	2.460573e+01	2.460582e+01	2.460577e+01
2.68          	bottom	2.568567e+01	2.568575e+01	2.568571e+01
2.69          	bottom	2.642338e+01	2.642345e+01	2.642342e+01
2.7           	bottom	2.693520e+01	2.693526e+01	2.693523e+01
2.71          	bottom	2.730124e+01	2.730129e+01	2.730126e+01
2.72          	bottom	2.757565e+01	2.757568e+01	2.757567e+01
2.73          	bottom	2.779457e+01	2.779460e+01	2.779459e+01
2.74          	bottom	2.798199e+01	2.798201e+01	2.798200e+01
2.75          	bottom	2.815376e+01	2.815378e+01	2.815377e+01
2.76          	bottom	2.832044e+01	2.832046e+01	2.832045e+01
2.77          	bottom	2.848912e+01	2.848914e+01	2.848913e+01
2.78          	bottom	2.866464e+01	2.866466e+01	2.866465e+01
2.79          	bottom	2.884994e+01	2.884997e+01	2.884996e+01
2.8           	bottom	2.904461e+01	2.904463e+01	2.904462e+01
2.81          	bottom	2.924728e+01	2.924731e+01	2.924729e+01
2.82          	bottom	2.945675e+01	2.945677e+01	2.945676e+01
2.83          	bottom	2.967199e+01	2.967202e+01	2.967201e+01
2.84          	bottom	2.989212e+01	2.989214e+01	2.989213e+01
2.85          	bottom	3.011632e+01	3.011634e+01	3.011633e+01
2.86          	bottom	3.034388e+01	3.034390e+01	3.034389e+01
2.87          	bottom	3.057418e+01	3.057420e+01	3.057419e+01
2.88          	bottom	3.080666e+01	3.080669e+01	3.080668e+01
2.89          	bottom	3.104085e+01	3.104088e+01	3.104087e+01
2.9           	bottom	3.127632e+01	3.127635e+01	3.127634e+01
2.91          	bottom	3.151271e+01	3.151274e+01	3.151272e+01
2.92          	bottom	3.174969e+01	3.174972e+01	3.174970e+01
2.93          	bottom	3.198699e+01	3.198702e+01	3.198701e+01
2.94          	bottom	3.222438e+01	3.222441e+01	3.222440e+01
2.95          	bottom	3.246167e+01	3.246169e+01	3.246168e+01
2.96          	bottom	3.269867e+01	3.269869e+01	3.269868e+01
2.97          	bottom	3.293526e+01	3.293528e+01	3.293527e+01
2.98          	bottom	3.317131e+01	3.317134e+01	3.317132e+01
2.99          	bottom	3.340673e+01	3.340676e+01	3.340675e+01
3             	bottom	3.364145e+01	3.364147e+01	3.364146e+01
3.01          	bottom	3.387538e+01	3.387541e+01	3.387539e+01
3.02          	bottom	3.410849e+01	3.410851e+01	3.410850e+01
3.03          	bottom	3.434071e+01	3.434073e+01	3.434072e+01
3.04          	bottom	3.457201e+01	3.457204e+01	3.457202e+01
3.05          	bottom	3.480237e+01	3.480239e+01	3.480238e+01
3.06          	bottom	3.503174e+01	3.503176e+01	3.503175e+01
3.07          	bottom	3.526011e+01	3.526012e+01	3.526012e+01
3.08          	bottom	3.548745e+01	3.548746e+01	3.548746e+01
3.09          	bottom	3.571374e+01	3.571375e+01	3.571374e+01
3.1           	bottom	3.593896e+01	3.593896e+01	3.593896e+01
3.11          	bottom	3.616309e+01	3.616310e+01	3.616309e+01
3.12          	bottom	3.638612e+01	3.638612e+01	3.638612e+01
3.13          	bottom	3.660803e+01	3.660803e+01	3.660803e+01
3.14          	bottom	3.682880e+01	3.682880e+01	3.682880e+01
3.15          	bottom	3.704843e+01	3.704843e+01	3.704843e+01
3.16          	bottom	3.726689e+01	3.726689e+01	3.726689e+01
3.17          	bottom	3.748417e+01	3.748417e+01	3.748417e+01
3.18          	bottom	3.770027e+01	3.770027e+01	3.770027e+01
3.19          	bottom	3.791516e+01	3.791516e+01	3.791516e+01
3.2           	bottom	3.812884e+01	3.812884e+01	3.812884e+01
3.21          	bottom	3.834129e+01	3.834130e+01	3.834129e+01
3.22          	bottom	3.855251e+01	3.855251e+01	3.855251e+01
3.23          	bottom	3.876248e+01	3.876248e+01	3.876248e+01
3.24          	bottom	3.897119e+01	3.897119e+01	3.897119e+01
3.25          	bottom	3.917863e+01	3.917863e+01	3.917863e+01
3.26          	bottom	3.938479e+01	3.938479e+01	3.938479e+01
3.27          	bottom	3.958966e+01	3.958966e+01	3.958966e+01
3.28          	bottom	3.979323e+01	3.979324e+01	3.979323e+01
3.29          	bottom	3.999550e+01	3.999550e+01	3.999550e+01
3.3           	bottom	4.019645e+01	4.019645e+01	4.019645e+01
3.31          	bottom	4.039608e+01	4.039608e+01	4.039608e+01
3.32          	bottom	4.059437e+01	4.059437e+01	4.059437e+01
3.33          	bottom	4.079132e+01	4.079132e+01	4.079132e+01
3.34          	bottom	4.098692e+01	4.098692e+01	4.098692e+01
3.35          	bottom	4.118116e+01	4.118116e+01	4.118116e+01
3.36          	bottom	4.137404e+01	4.137404e+01	4.137404e+01
3.37          	bottom	4.156554e+01	4.156554e+01	4.156554e+01
3.38          	bottom	4.175567e+01	4.175567e+01	4.175567e+01
3.39          	bottom	4.194441e+01	4.194441e+01	4.194441e+01
3.4           	bottom	4.213175e+01	4.213175e+01	4.213175e+01
3.41          	bottom	4.231769e+01	4.231770e+01	4.231770e+01
3.42          	bottom	4.250223e+01	4.250223e+01	4.250223e+01
3.43          	bottom	4.268535e+01	4.268536e+01	4.268536e+01
3.44          	bottom	4.286706e+01	4.286706e+01	4.286706e+01
3.45          	bottom	4.304733e+01	4.304734e+01	4.304733e+01
3.46          	bottom	4.322618e+01	4.322618e+01	4.322618e+01
3.47          	bottom	4.340358e+01	4.340358e+01	4.340358e+01
3.48          	bottom	4.357954e+01	4.357955e+01	4.357954e+01
3.49          	bottom	4.375405e+01	4.375406e+01	4.375405e+01
3.5           	bottom	4.392711e+01	4.392711e+01	4.392711e+01
3.51          	bottom	4.409870e+01	4.409870e+01	4.409870e+01
3.52          	bottom	4.426882e+01	4.426883e+01	4.426883e+01
3.53          	bottom	4.443748e+01	4.443748e+01	4.443748e+01
3.54          	bottom	4.460465e+01	4.460465e+01	4.460465e+01
3.55          	bottom	4.477034e+01	4.477034e+01	4.477034e+01
3.56          	bottom	4.493454e+01	4.493454e+01	4.493454e+01
3.57          	bottom	4.509725e+01	4.509725e+01	4.509725e+01
3.58          	bottom	4.525846e+01	4.525846e+01	4.525846e+01
3.59          	bottom	4.541816e+01	4.541816e+01	4.541816e+01
3.6           	bottom	4.557635e+01	4.557636e+01	4.557636e+01
3.61          	bottom	4.573304e+01	4.573304e+01	4.573304e+01
3.62          	bottom	4.588820e+01	4.588820e+01	4.588820e+01
3.63          	bottom	4.604184e+01	4.604184e+01	4.604184e+01
3.64          	bottom	4.619395e+01	4.619395e+01	4.619395e+01
3.65          	bottom	4.634452e+01	4.634453e+01	4.634452e+01
3.66          	bottom	4.649356e+01	4.649356e+01	4.649356e+01
3.67          	bottom	4.664106e+01	4.664106e+01	4.664106e+01
3.68          	bottom	4.678701e+01	4.678701e+01	4.678701e+01
3.69          	bottom	4.693141e+01	4.693141e+01	4.693141e+01
3.7           	bottom	4.707425e+01	4.707426e+01	4.707426e+01
3.71          	bottom	4.721554e+01	4.721554e+01	4.721554e+01
3.72          	bottom	4.735526e+01	4.735526e+01	4.735526e+01
3.73          	bottom	4.749341e+01	4.749341e+01	4.749341e+01
3.74          	bottom	4.762999e+01	4.762999e+01	4.762999e+01
3.75          	bottom	4.776500e+01	4.776500e+01	4.776500e+01
3.76          	bottom	4.789842e+01	4.789842e+01	4.789842e+01
3.77          	bottom	4.803026e+01	4.803026e+01	4.803026e+01
3.78          	bottom	4.816051e+01	4.816051e+01	4.816051e+01
3.79          	bottom	4.828916e+01	4.828917e+01	4.828916e+01
3.8           	bottom	4.841622e+01	4.841623e+01	4.841623e+01
3.81          	bottom	4.854169e+01	4.854169e+01	4.854169e+01
3.82          	bottom	4.866554e+01	4.866554e+01	4.866554e+01
3.83          	bottom	4.878779e+01	4.878779e+01	4.878779e+01
3.84          	bottom	4.890843e+01	4.890843e+01	4.890843e+01
3.85          	bottom	4.902745e+01	4.902745e+01	4.902745e+01
3.86          	bottom	4.914486e+01	4.914486e+01	4.914486e+01
3.87          	bottom	4.926064e+01	4.926064e+01	4.926064e+01
3.88          	bottom	4.937479e+01	4.937480e+01	4.937479e+01
3.89          	bottom	4.948732e+01	4.948732e+01	4.948732e+01
3.9           	bottom	4.959822e+01	4.959822e+01	4.959822e+01
3.91          	bottom	4.970747e+01	4.970748e+01	4.970748e+01
3.92          	bottom	4.981509e+01	4.981510e+01	4.981509e+01
3.93          	bottom	4.992107e+01	4.992107e+01	4.992107e+01
3.94          	bottom	5.002540e+01	5.002540e+01	5.002540e+01
3.95          	bottom	5.012808e+01	5.012809e+01	5.012809e+01
3.96          	bottom	5.022911e+01	5.022912e+01	5.022912e+01
3.97          	bottom	5.032849e+01	5.032849e+01	5.032849e+01
3.98          	bottom	5.042621e+01	5.042621e+01	5.042621e+01
3.99          	bottom	5.052226e+01	5.052226e+01	5.052226e+01
4             	bottom	5.061665e+01	5.061665e+01	5.061665e+01
4.01          	bottom	5.070938e+01	5.070938e+01	5.070938e+01
4.02          	bottom	5.080043e+01	5.080043e+01	5.080043e+01
4.03          	bottom	5.088981e+01	5.088981e+01	5.088981e+01
4.04          	bottom	5.097752e+01	5.097752e+01	5.097752e+01
4.05          	bottom	5.106354e+01	5.106355e+01	5.106355e+01
4.06          	bottom	5.114789e+01	5.114789e+01	5.114789e+01
4.07          	bottom	5.123055e+01	5.123056e+01	5.123055e+01
4.08          	bottom	5.131153e+01	5.131153e+01	5.131153e+01
4.09          	bottom	5.139082e+01	5.139082e+01	5.139082e+01
4.1           	bottom	5.146841e+01	5.146842e+01	5.146841e+01
4.11          	bottom	5.154432e+01	5.154432e+01	5.154432e+01
4.12          	bottom	5.161852e+01	5.161852e+01	5.161852e+01
4.13          	bottom	5.169103e+01	5.169103e+01	5.169103e+01
4.14          	bottom	5.176184e+01	5.176184e+01	5.176184e+01
4.15          	bottom	5.183094e+01	5.183094e+01	5.183094e+01
4.16          	bottom	5.189834e+01	5.189834e+01	5.189834e+01
4.17          	bottom	5.196403e+01	5.196403e+01	5.196403e+01
4.18          	bottom	5.202801e+01	5.202801e+01	5.202801e+01
4.19          	bottom	5.209028e+01	5.209028e+01	5.209028e+01
4.2           	bottom	5.215083e+01	5.215083e+01	5.215083e+01
4.21          	bottom	5.220967e+01	5.220967e+01	5.220967e+01
4.22          	bottom	5.226679e+01	5.226679e+01	5.226679e+01
4.23          	bottom	5.232219e+01	5.232220e+01	5.232219e+01
4.24          	bottom	5.237587e+01	5.237588e+01	5.237587e+01
4.25          	bottom	5.242783e+01	5.242783e+01	5.242783e+01
4.26          	bottom	5.247806e+01	5.247806e+01	5.247806e+01
4.27          	bottom	5.252656e+01	5.252657e+01	5.252657e+01
4.28          	bottom	5.257334e+01	5.257334e+01	5.257334e+01
4.29          	bottom	5.261839e+01	5.261839e+01	5.261839e+01
4.3           	bottom	5.266170e+01	5.266170e+01	5.266170e+01
4.31          	bottom	5.270328e+01	5.270328e+01	5.270328e+01
4.32          	bottom	5.274312e+01	5.274313e+01	5.274313e+01
4.33          	bottom	5.278123e+01	5.278124e+01	5.278123e+01
4.34          	bottom	5.281760e+01	5.281761e+01	5.281761e+01
4.35          	bottom	5.285224e+01	5.285224e+01	5.285224e+01
4.36          	bottom	5.288513e+01	5.288513e+01	5.288513e+01
4.37          	bottom	5.291628e+01	5.291628e+01	5.291628e+01
4.38          	bottom	5.294569e+01	5.294569e+01	5.294569e+01
4.39          	bottom	5.297335e+01	5.297335e+01	5.297335e+01
4.4           	bottom	5.299927e+01	5.299927e+01	5.299927e+01
4.41          	bottom	5.302344e+01	5.302344e+01	5.302344e+01
4.42          	bottom	5.304587e+01	5.304587e+01	5.304587e+01
4.43          	bottom	5.306654e+01	5.306654e+01	5.306654e+01
4.44          	bottom	5.308547e+01	5.308547e+01	5.308547e+01
4.45          	bottom	5.310265e+01	5.310265e+01	5.310265e+01
4.46          	bottom	5.311807e+01	5.311807e+01	5.311807e+01
4.47          	bottom	5.313175e+01	5.313175e+01	5.313175e+01
4.48          	bottom	5.314367e+01	5.314367e+01	5.314367e+01
4.49          	bottom	5.315384e+01	5.315384e+01	5.315384e+01
4.5           	bottom	5.316225e+01	5.316225e+01	5.316225e+01
4.51          	bottom	5.316892e+01	5.316892e+01	5.316892e+01
4.52          	bottom	5.317382e+01	5.317382e+01	5.317382e+01
4.53          	bottom	5.317697e+01	5.317697e+01	5.317697e+01
4.54          	bottom	5.317837e+01	5.317837e+01	5.317837e+01
4.55          	bottom	5.317800e+01	5.317801e+01	5.317800e+01
4.56          	bottom	5.317589e+01	5.317589e+01	5.317589e+01
4.57          	bottom	5.317201e+01	5.317201e+01	5.317201e+01
4.58          	bottom	5.316638e+01	5.316638e+01	5.316638e+01
4.59          	bottom	5.315899e+01	5.315899e+01	5.315899e+01
4.6           	bottom	5.314984e+01	5.314984e+01	5.314984e+01
4.61          	bottom	5.313893e+01	5.313894e+01	5.313893e+01
4.62          	bottom	5.312627e+01	5.312627e+01	5.312627e+01
4.63          	bottom	5.311185e+01	5.311185e+01	5.311185e+01
4.64          	bottom	5.309567e+01	5.309567e+01	5.309567e+01
4.65          	bottom	5.307773e+01	5.307773e+01	5.307773e+01
4.66          	bottom	5.305804e+01	5.305804e+01	5.305804e+01
4.67          	bottom	5.303659e+01	5.303659e+01	5.303659e+01
4.68          	bottom	5.301338e+01	5.301338e+01	5.301338e+01
4.69          	bottom	5.298841e+01	5.298841e+01	5.298841e+01
4.7           	bottom	5.296169e+01	5.296169e+01	5.296169e+01
4.71          	bottom	5.293321e+01	5.293321e+01	5.293321e+01
4.72          	bottom	5.290297e+01	5.290298e+01	5.290297e+01
4.73          	bottom	5.287098e+01	5.287099e+01	5.287098e+01
4.74          	bottom	5.283724e+01	5.283724e+01	5.283724e+01
4.75          	bottom	5.280174e+01	5.280174e+01	5.280174e+01
4.76          	bottom	5.276448e+01	5.276449e+01	5.276448e+01
4.77          	bottom	5.272548e+01	5.272548e+01	5.272548e+01
4.78          	bottom	5.268472e+01	5.268472e+01	5.268472e+01
4.79          	bottom	5.264220e+01	5.264221e+01	5.264221e+01
4.8           	bottom	5.259794e+01	5.259794e+01	5.259794e+01
4.81          	bottom	5.255193e+01	5.255193e+01	5.255193e+01
4.82          	bottom	5.250416e+01	5.250417e+01	5.250417e+01
4.83          	bottom	5.245465e+01	5.245466e+01	5.245465e+01
4.84          	bottom	5.240339e+01	5.240340e+01	5.240340e+01
4.85          	bottom	5.235039e+01	5.235039e+01	5.235039e+01
4.86          	bottom	5.229564e+01	5.229564e+01	5.229564e+01
4.87          	bottom	5.223914e+01	5.223914e+01	5.223914e+01
4.88          	bottom	5.218090e+01	5.218090e+01	5.218090e+01
4.89          	bottom	5.212092e+01	5.212092e+01	5.212092e+01
4.9           	bottom	5.205920e+01	5.205920e+01	5.205920e+01