# Wall shear stress
# Time        	patch         	min           	max           
1.000000e-02	bottomWall	(-1.292700e-03 -1.494886e-16 -5.025709e-35)	(-1.292700e-03 -1.494886e-16 -5.025709e-35)
2.000000e-02	bottomWall	(-9.109586e-04 -1.831292e-16 -5.918012e-35)	(-9.109586e-04 -1.831292e-16 -5.918012e-35)
3.000000e-02	bottomWall	(-1.205571e-03 -5.668583e-16 -1.461057e-34)	(-1.205571e-03 -5.668583e-16 -1.461057e-34)
4.000000e-02	bottomWall	(-1.295653e-03 -8.162652e-16 -1.865119e-34)	(-1.295653e-03 -8.162652e-16 -1.865119e-34)
5.000000e-02	bottomWall	(-1.335001e-03 -9.898214e-16 -2.038318e-34)	(-1.335001e-03 -9.898214e-16 -2.038318e-34)
6.000000e-02	bottomWall	(-1.353536e-03 -1.276742e-15 -2.470499e-34)	(-1.353536e-03 -1.276742e-15 -2.470499e-34)
7.000000e-02	bottomWall	(-1.360112e-03 -1.369990e-15 -2.435851e-34)	(-1.360112e-03 -1.369990e-15 -2.435851e-34)
8.000000e-02	bottomWall	(-1.359206e-03 -1.489098e-15 -2.659060e-34)	(-1.359206e-03 -1.489098e-15 -2.659060e-34)
9.000000e-02	bottomWall	(-1.353427e-03 -1.542333e-15 -2.714153e-34)	(-1.353427e-03 -1.542333e-15 -2.714153e-34)
1.000000e-01	bottomWall	(-1.344413e-03 -1.478967e-15 -2.604059e-34)	(-1.344413e-03 -1.478967e-15 -2.604059e-34)
1.100000e-01	bottomWall	(-1.333238e-03 -1.577352e-15 -2.809051e-34)	(-1.333238e-03 -1.577352e-15 -2.809051e-34)
1.200000e-01	bottomWall	(-1.320626e-03 -1.651516e-15 -2.936416e-34)	(-1.320626e-03 -1.651516e-15 -2.936416e-34)
1.300000e-01	bottomWall	(-1.307069e-03 -1.660452e-15 -2.845214e-34)	(-1.307069e-03 -1.660452e-15 -2.845214e-34)
1.400000e-01	bottomWall	(-1.292908e-03 -1.542508e-15 -2.763947e-34)	(-1.292908e-03 -1.542508e-15 -2.763947e-34)
1.500000e-01	bottomWall	(-1.278378e-03 -1.655341e-15 -2.909732e-34)	(-1.278378e-03 -1.655341e-15 -2.909732e-34)
1.600000e-01	bottomWall	(-1.263639e-03 -1.756612e-15 -3.141493e-34)	(-1.263639e-03 -1.756612e-15 -3.141493e-34)
1.700000e-01	bottomWall	(-1.248805e-03 -1.743248e-15 -2.961370e-34)	(-1.248805e-03 -1.743248e-15 -2.961370e-34)
1.800000e-01	bottomWall	(-1.233949e-03 -1.792013e-15 -3.172406e-34)	(-1.233949e-03 -1.792013e-15 -3.172406e-34)
1.900000e-01	bottomWall	(-1.219124e-03 -1.917193e-15 -3.412138e-34)	(-1.219124e-03 -1.917193e-15 -3.412138e-34)
2.000000e-01	bottomWall	(-1.204360e-03 -1.803175e-15 -3.206309e-34)	(-1.204360e-03 -1.803175e-15 -3.206309e-34)
2.100000e-01	bottomWall	(-1.189678e-03 -1.761257e-15 -3.205725e-34)	(-1.189678e-03 -1.761257e-15 -3.205725e-34)
2.200000e-01	bottomWall	(-1.175090e-03 -1.868188e-15 -3.396530e-34)	(-1.175090e-03 -1.868188e-15 -3.396530e-34)
2.300000e-01	bottomWall	(-1.160599e-03 -1.824003e-15 -3.314761e-34)	(-1.160599e-03 -1.824003e-15 -3.314761e-34)
2.400000e-01	bottomWall	(-1.146205e-03 -1.844623e-15 -3.378066e-34)	(-1.146205e-03 -1.844623e-15 -3.378066e-34)
2.500000e-01	bottomWall	(-1.131907e-03 -2.066343e-15 -3.796511e-34)	(-1.131907e-03 -2.066343e-15 -3.796511e-34)
2.600000e-01	bottomWall	(-1.117699e-03 -1.976201e-15 -3.531859e-34)	(-1.117699e-03 -1.976201e-15 -3.531859e-34)
2.700000e-01	bottomWall	(-1.103576e-03 -1.848726e-15 -3.314793e-34)	(-1.103576e-03 -1.848726e-15 -3.314793e-34)
2.800000e-01	bottomWall	(-1.089530e-03 -1.764732e-15 -3.208233e-34)	(-1.089530e-03 -1.764732e-15 -3.208233e-34)
2.900000e-01	bottomWall	(-1.075555e-03 -1.370904e-15 -2.523400e-34)	(-1.075555e-03 -1.370904e-15 -2.523400e-34)
3.000000e-01	bottomWall	(-1.061644e-03 -1.104399e-15 -1.946822e-34)	(-1.061644e-03 -1.104399e-15 -1.946822e-34)
3.100000e-01	bottomWall	(-1.047789e-03 -1.255437e-15 -2.364063e-34)	(-1.047789e-03 -1.255437e-15 -2.364063e-34)
3.200000e-01	bottomWall	(-1.033983e-03 -9.820013e-16 -1.909303e-34)	(-1.033983e-03 -9.820013e-16 -1.909303e-34)
3.300000e-01	bottomWall	(-1.020220e-03 -8.784843e-16 -1.661987e-34)	(-1.020220e-03 -8.784843e-16 -1.661987e-34)
3.400000e-01	bottomWall	(-1.006494e-03 -9.046909e-16 -1.731093e-34)	(-1.006494e-03 -9.046909e-16 -1.731093e-34)
3.500000e-01	bottomWall	(-9.927987e-04 -8.823580e-16 -1.662135e-34)	(-9.927987e-04 -8.823580e-16 -1.662135e-34)
3.600000e-01	bottomWall	(-9.791290e-04 -7.633056e-16 -1.318899e-34)	(-9.791290e-04 -7.633056e-16 -1.318899e-34)
3.700000e-01	bottomWall	(-9.654799e-04 3.521787e-16 6.295029e-35)	(-9.654799e-04 3.521787e-16 6.295029e-35)
3.800000e-01	bottomWall	(-9.518470e-04 1.365738e-15 2.608351e-34)	(-9.518470e-04 1.365738e-15 2.608351e-34)
3.900000e-01	bottomWall	(-9.382260e-04 2.061126e-15 3.965984e-34)	(-9.382260e-04 2.061126e-15 3.965984e-34)
4.000000e-01	bottomWall	(-9.246134e-04 2.694006e-15 5.050407e-34)	(-9.246134e-04 2.694006e-15 5.050407e-34)
4.100000e-01	bottomWall	(-9.110059e-04 3.083281e-15 5.912230e-34)	(-9.110059e-04 3.083281e-15 5.912230e-34)
4.200000e-01	bottomWall	(-8.974006e-04 3.668830e-15 7.023868e-34)	(-8.974006e-04 3.668830e-15 7.023868e-34)
4.300000e-01	bottomWall	(-8.837949e-04 4.107720e-15 7.851734e-34)	(-8.837949e-04 4.107720e-15 7.851734e-34)
4.400000e-01	bottomWall	(-8.701868e-04 4.404594e-15 8.466958e-34)	(-8.701868e-04 4.404594e-15 8.466958e-34)
4.500000e-01	bottomWall	(-8.565743e-04 4.831009e-15 9.303616e-34)	(-8.565743e-04 4.831009e-15 9.303616e-34)
4.600000e-01	bottomWall	(-8.429559e-04 5.099431e-15 9.841606e-34)	(-8.429559e-04 5.099431e-15 9.841606e-34)
4.700000e-01	bottomWall	(-8.293304e-04 5.344436e-15 1.037067e-33)	(-8.293304e-04 5.344436e-15 1.037067e-33)
4.800000e-01	bottomWall	(-8.156969e-04 5.386474e-15 1.040095e-33)	(-8.156969e-04 5.386474e-15 1.040095e-33)
4.900000e-01	bottomWall	(-8.020546e-04 5.451404e-15 1.043098e-33)	(-8.020546e-04 5.451404e-15 1.043098e-33)
5.000000e-01	bottomWall	(-7.884031e-04 5.667905e-15 1.095807e-33)	(-7.884031e-04 5.667905e-15 1.095807e-33)
5.100000e-01	bottomWall	(-7.747422e-04 5.728392e-15 1.103618e-33)	(-7.747422e-04 5.728392e-15 1.103618e-33)
5.200000e-01	bottomWall	(-7.610719e-04 5.873713e-15 1.143509e-33)	(-7.610719e-04 5.873713e-15 1.143509e-33)
5.300000e-01	bottomWall	(-7.473925e-04 5.984765e-15 1.159624e-33)	(-7.473925e-04 5.984765e-15 1.159624e-33)
5.400000e-01	bottomWall	(-7.337043e-04 6.201737e-15 1.194890e-33)	(-7.337043e-04 6.201737e-15 1.194890e-33)
5.500000e-01	bottomWall	(-7.200079e-04 6.394368e-15 1.229950e-33)	(-7.200079e-04 6.394368e-15 1.229950e-33)
5.600000e-01	bottomWall	(-7.063041e-04 6.433476e-15 1.241438e-33)	(-7.063041e-04 6.433476e-15 1.241438e-33)
5.700000e-01	bottomWall	(-6.925938e-04 6.461890e-15 1.249593e-33)	(-6.925938e-04 6.461890e-15 1.249593e-33)
5.800000e-01	bottomWall	(-6.788781e-04 6.464665e-15 1.249491e-33)	(-6.788781e-04 6.464665e-15 1.249491e-33)
5.900000e-01	bottomWall	(-6.651583e-04 5.345616e-15 1.033782e-33)	(-6.651583e-04 5.345616e-15 1.033782e-33)
6.000000e-01	bottomWall	(-6.514356e-04 4.644036e-15 9.017610e-34)	(-6.514356e-04 4.644036e-15 9.017610e-34)
6.100000e-01	bottomWall	(-6.377115e-04 3.822451e-15 7.385771e-34)	(-6.377115e-04 3.822451e-15 7.385771e-34)
6.200000e-01	bottomWall	(-6.239877e-04 3.105298e-15 5.965512e-34)	(-6.239877e-04 3.105298e-15 5.965512e-34)
6.300000e-01	bottomWall	(-6.102658e-04 2.580300e-15 5.020840e-34)	(-6.102658e-04 2.580300e-15 5.020840e-34)
6.400000e-01	bottomWall	(-5.965476e-04 2.305894e-15 4.417784e-34)	(-5.965476e-04 2.305894e-15 4.417784e-34)
6.500000e-01	bottomWall	(-5.828350e-04 1.806337e-15 3.461037e-34)	(-5.828350e-04 1.806337e-15 3.461037e-34)
6.600000e-01	bottomWall	(-5.691299e-04 1.499471e-15 2.870170e-34)	(-5.691299e-04 1.499471e-15 2.870170e-34)
6.700000e-01	bottomWall	(-5.554344e-04 1.414369e-15 2.677411e-34)	(-5.554344e-04 1.414369e-15 2.677411e-34)
6.800000e-01	bottomWall	(-5.417507e-04 1.161022e-15 2.238922e-34)	(-5.417507e-04 1.161022e-15 2.238922e-34)
6.900000e-01	bottomWall	(-5.280808e-04 9.086895e-16 1.776831e-34)	(-5.280808e-04 9.086895e-16 1.776831e-34)
7.000000e-01	bottomWall	(-5.144270e-04 9.315621e-16 1.780613e-34)	(-5.144270e-04 9.315621e-16 1.780613e-34)
7.100000e-01	bottomWall	(-5.007916e-04 8.338076e-16 1.602474e-34)	(-5.007916e-04 8.338076e-16 1.602474e-34)
7.200000e-01	bottomWall	(-4.871770e-04 8.015066e-16 1.525629e-34)	(-4.871770e-04 8.015066e-16 1.525629e-34)
7.300000e-01	bottomWall	(-4.735854e-04 6.464212e-16 1.247592e-34)	(-4.735854e-04 6.464212e-16 1.247592e-34)
7.400000e-01	bottomWall	(-4.600193e-04 4.948506e-16 9.300731e-35)	(-4.600193e-04 4.948506e-16 9.300731e-35)
7.500000e-01	bottomWall	(-4.464810e-04 3.953975e-16 8.083315e-35)	(-4.464810e-04 3.953975e-16 8.083315e-35)
7.600000e-01	bottomWall	(-4.329731e-04 2.473978e-16 3.969096e-35)	(-4.329731e-04 2.473978e-16 3.969096e-35)
7.700000e-01	bottomWall	(-4.194979e-04 2.474515e-16 4.313148e-35)	(-4.194979e-04 2.474515e-16 4.313148e-35)
7.800000e-01	bottomWall	(-4.060580e-04 1.810784e-16 3.606438e-35)	(-4.060580e-04 1.810784e-16 3.606438e-35)
7.900000e-01	bottomWall	(-3.926556e-04 1.324020e-16 2.527558e-35)	(-3.926556e-04 1.324020e-16 2.527558e-35)
8.000000e-01	bottomWall	(-3.792933e-04 -2.489551e-16 -5.063961e-35)	(-3.792933e-04 -2.489551e-16 -5.063961e-35)
8.100000e-01	bottomWall	(-3.659735e-04 -6.352764e-16 -1.215463e-34)	(-3.659735e-04 -6.352764e-16 -1.215463e-34)
8.200000e-01	bottomWall	(-3.526986e-04 -1.108292e-15 -2.100156e-34)	(-3.526986e-04 -1.108292e-15 -2.100156e-34)
8.300000e-01	bottomWall	(-3.394708e-04 -1.424183e-15 -2.791154e-34)	(-3.394708e-04 -1.424183e-15 -2.791154e-34)
8.400000e-01	bottomWall	(-3.262925e-04 -1.586303e-15 -2.972718e-34)	(-3.262925e-04 -1.586303e-15 -2.972718e-34)
8.500000e-01	bottomWall	(-3.131659e-04 -1.844734e-15 -3.414437e-34)	(-3.131659e-04 -1.844734e-15 -3.414437e-34)
8.600000e-01	bottomWall	(-3.000931e-04 -2.030920e-15 -3.761816e-34)	(-3.000931e-04 -2.030920e-15 -3.761816e-34)
8.700000e-01	bottomWall	(-2.870763e-04 -2.246724e-15 -4.215754e-34)	(-2.870763e-04 -2.246724e-15 -4.215754e-34)
8.800000e-01	bottomWall	(-2.741175e-04 -2.399334e-15 -4.543244e-34)	(-2.741175e-04 -2.399334e-15 -4.543244e-34)
8.900000e-01	bottomWall	(-2.612184e-04 -2.559138e-15 -4.810995e-34)	(-2.612184e-04 -2.559138e-15 -4.810995e-34)
9.000000e-01	bottomWall	(-2.483809e-04 -2.603000e-15 -4.861534e-34)	(-2.483809e-04 -2.603000e-15 -4.861534e-34)
9.100000e-01	bottomWall	(-2.356065e-04 -2.502749e-15 -4.629863e-34)	(-2.356065e-04 -2.502749e-15 -4.629863e-34)
9.200000e-01	bottomWall	(-2.228967e-04 -2.426766e-15 -4.623240e-34)	(-2.228967e-04 -2.426766e-15 -4.623240e-34)
9.300000e-01	bottomWall	(-2.102528e-04 -2.298855e-15 -4.315274e-34)	(-2.102528e-04 -2.298855e-15 -4.315274e-34)
9.400000e-01	bottomWall	(-1.976758e-04 -2.296406e-15 -4.296873e-34)	(-1.976758e-04 -2.296406e-15 -4.296873e-34)
9.500000e-01	bottomWall	(-1.851664e-04 -1.871646e-15 -3.484929e-34)	(-1.851664e-04 -1.871646e-15 -3.484929e-34)
9.600000e-01	bottomWall	(-1.727252e-04 -1.470329e-15 -2.732636e-34)	(-1.727252e-04 -1.470329e-15 -2.732636e-34)
9.700000e-01	bottomWall	(-1.603525e-04 -1.137889e-15 -2.122931e-34)	(-1.603525e-04 -1.137889e-15 -2.122931e-34)
9.800000e-01	bottomWall	(-1.480479e-04 -8.468800e-16 -1.539465e-34)	(-1.480479e-04 -8.468800e-16 -1.539465e-34)
9.900000e-01	bottomWall	(-1.358109e-04 -5.680691e-16 -1.094731e-34)	(-1.358109e-04 -5.680691e-16 -1.094731e-34)
1.000000e+00	bottomWall	(-1.236404e-04 -6.159363e-16 -1.155884e-34)	(-1.236404e-04 -6.159363e-16 -1.155884e-34)
1.010000e+00	bottomWall	(-1.115346e-04 -5.971555e-16 -1.136843e-34)	(-1.115346e-04 -5.971555e-16 -1.136843e-34)
1.020000e+00	bottomWall	(-9.949113e-05 -5.105875e-16 -1.002090e-34)	(-9.949113e-05 -5.105875e-16 -1.002090e-34)
1.030000e+00	bottomWall	(-8.750655e-05 -6.411947e-16 -1.222921e-34)	(-8.750655e-05 -6.411947e-16 -1.222921e-34)
1.040000e+00	bottomWall	(-7.557643e-05 -9.536564e-16 -1.749075e-34)	(-7.557643e-05 -9.536564e-16 -1.749075e-34)
1.050000e+00	bottomWall	(-6.369485e-05 -1.299630e-15 -2.517379e-34)	(-6.369485e-05 -1.299630e-15 -2.517379e-34)
1.060000e+00	bottomWall	(-5.185399e-05 -1.507402e-15 -2.893079e-34)	(-5.185399e-05 -1.507402e-15 -2.893079e-34)
1.070000e+00	bottomWall	(-4.004344e-05 -1.611502e-15 -3.085758e-34)	(-4.004344e-05 -1.611502e-15 -3.085758e-34)
1.080000e+00	bottomWall	(-2.824894e-05 -1.552949e-15 -3.020495e-34)	(-2.824894e-05 -1.552949e-15 -3.020495e-34)
1.090000e+00	bottomWall	(-1.645035e-05 -1.567443e-15 -3.120513e-34)	(-1.645035e-05 -1.567443e-15 -3.120513e-34)
1.100000e+00	bottomWall	(-4.617692e-06 -1.554856e-15 -3.148523e-34)	(-4.617692e-06 -1.554856e-15 -3.148523e-34)
1.110000e+00	bottomWall	(7.291226e-06 -1.492962e-15 -3.192712e-34)	(7.291226e-06 -1.492962e-15 -3.192712e-34)
1.120000e+00	bottomWall	(1.961591e-05 -1.473546e-15 -3.155732e-34)	(1.961591e-05 -1.473546e-15 -3.155732e-34)
1.130000e+00	bottomWall	(3.160023e-05 -1.385829e-15 -2.810569e-34)	(3.160023e-05 -1.385829e-15 -2.810569e-34)
1.140000e+00	bottomWall	(4.320959e-05 -1.400580e-15 -2.782190e-34)	(4.320959e-05 -1.400580e-15 -2.782190e-34)
1.150000e+00	bottomWall	(5.448197e-05 -1.491502e-15 -2.814060e-34)	(5.448197e-05 -1.491502e-15 -2.814060e-34)
1.160000e+00	bottomWall	(6.545794e-05 -1.543689e-15 -2.880189e-34)	(6.545794e-05 -1.543689e-15 -2.880189e-34)
1.170000e+00	bottomWall	(7.616946e-05 -1.526087e-15 -2.785825e-34)	(7.616946e-05 -1.526087e-15 -2.785825e-34)
1.180000e+00	bottomWall	(8.664186e-05 -1.545869e-15 -2.817845e-34)	(8.664186e-05 -1.545869e-15 -2.817845e-34)
1.190000e+00	bottomWall	(9.689585e-05 -1.512293e-15 -2.742789e-34)	(9.689585e-05 -1.512293e-15 -2.742789e-34)
1.200000e+00	bottomWall	(1.069491e-04 -1.510344e-15 -2.745226e-34)	(1.069491e-04 -1.510344e-15 -2.745226e-34)
1.210000e+00	bottomWall	(1.168169e-04 -1.055848e-15 -1.936003e-34)	(1.168169e-04 -1.055848e-15 -1.936003e-34)
1.220000e+00	bottomWall	(1.265135e-04 -5.465358e-16 -9.728172e-35)	(1.265135e-04 -5.465358e-16 -9.728172e-35)
1.230000e+00	bottomWall	(1.360516e-04 -4.295273e-17 -7.879394e-36)	(1.360516e-04 -4.295273e-17 -7.879394e-36)
1.240000e+00	bottomWall	(1.454435e-04 4.721290e-16 8.619061e-35)	(1.454435e-04 4.721290e-16 8.619061e-35)
1.250000e+00	bottomWall	(1.547008e-04 8.327516e-16 1.495466e-34)	(1.547008e-04 8.327516e-16 1.495466e-34)
1.260000e+00	bottomWall	(1.638350e-04 8.646168e-16 1.586938e-34)	(1.638350e-04 8.646168e-16 1.586938e-34)
1.270000e+00	bottomWall	(1.728569e-04 8.222536e-16 1.474109e-34)	(1.728569e-04 8.222536e-16 1.474109e-34)
1.280000e+00	bottomWall	(1.817775e-04 7.437829e-16 1.348087e-34)	(1.817775e-04 7.437829e-16 1.348087e-34)
1.290000e+00	bottomWall	(1.906075e-04 7.577616e-16 1.351217e-34)	(1.906075e-04 7.577616e-16 1.351217e-34)
1.300000e+00	bottomWall	(1.993575e-04 7.149209e-16 1.319427e-34)	(1.993575e-04 7.149209e-16 1.319427e-34)
1.310000e+00	bottomWall	(2.080380e-04 6.695980e-16 1.238958e-34)	(2.080380e-04 6.695980e-16 1.238958e-34)
1.320000e+00	bottomWall	(2.166595e-04 6.144094e-16 1.111691e-34)	(2.166595e-04 6.144094e-16 1.111691e-34)
1.330000e+00	bottomWall	(2.252321e-04 4.040623e-16 7.377354e-35)	(2.252321e-04 4.040623e-16 7.377354e-35)
1.340000e+00	bottomWall	(2.337661e-04 1.784452e-16 3.315687e-35)	(2.337661e-04 1.784452e-16 3.315687e-35)
1.350000e+00	bottomWall	(2.422714e-04 -5.076922e-17 -1.169887e-35)	(2.422714e-04 -5.076922e-17 -1.169887e-35)
1.360000e+00	bottomWall	(2.507578e-04 -2.205635e-16 -4.016666e-35)	(2.507578e-04 -2.205635e-16 -4.016666e-35)
1.370000e+00	bottomWall	(2.592348e-04 -2.264261e-16 -4.215681e-35)	(2.592348e-04 -2.264261e-16 -4.215681e-35)
1.380000e+00	bottomWall	(2.677117e-04 -1.675892e-16 -3.166610e-35)	(2.677117e-04 -1.675892e-16 -3.166610e-35)
1.390000e+00	bottomWall	(2.761974e-04 -1.987197e-18 1.206041e-36)	(2.761974e-04 -1.987197e-18 1.206041e-36)
1.400000e+00	bottomWall	(2.847005e-04 1.379543e-17 1.308642e-38)	(2.847005e-04 1.379543e-17 1.308642e-38)
1.410000e+00	bottomWall	(2.932292e-04 3.594135e-17 5.050627e-36)	(2.932292e-04 3.594135e-17 5.050627e-36)
1.420000e+00	bottomWall	(3.017912e-04 -1.772156e-16 -3.288012e-35)	(3.017912e-04 -1.772156e-16 -3.288012e-35)
1.430000e+00	bottomWall	(3.103938e-04 -3.000572e-16 -5.416071e-35)	(3.103938e-04 -3.000572e-16 -5.416071e-35)
1.440000e+00	bottomWall	(3.190440e-04 -2.838106e-16 -5.110889e-35)	(3.190440e-04 -2.838106e-16 -5.110889e-35)
1.450000e+00	bottomWall	(3.277480e-04 -2.960932e-16 -5.443069e-35)	(3.277480e-04 -2.960932e-16 -5.443069e-35)
1.460000e+00	bottomWall	(3.365118e-04 -3.372832e-16 -6.356044e-35)	(3.365118e-04 -3.372832e-16 -6.356044e-35)
1.470000e+00	bottomWall	(3.453406e-04 -4.008476e-16 -7.480617e-35)	(3.453406e-04 -4.008476e-16 -7.480617e-35)
1.480000e+00	bottomWall	(3.542394e-04 -4.401711e-16 -8.152952e-35)	(3.542394e-04 -4.401711e-16 -8.152952e-35)
1.490000e+00	bottomWall	(3.632126e-04 -3.484257e-16 -6.339514e-35)	(3.632126e-04 -3.484257e-16 -6.339514e-35)
1.500000e+00	bottomWall	(3.722640e-04 -1.394583e-16 -2.652743e-35)	(3.722640e-04 -1.394583e-16 -2.652743e-35)
1.510000e+00	bottomWall	(3.813970e-04 1.217846e-16 2.202650e-35)	(3.813970e-04 1.217846e-16 2.202650e-35)
1.520000e+00	bottomWall	(3.906147e-04 1.454440e-16 2.543984e-35)	(3.906147e-04 1.454440e-16 2.543984e-35)
1.530000e+00	bottomWall	(3.999196e-04 1.373958e-16 2.527724e-35)	(3.999196e-04 1.373958e-16 2.527724e-35)
1.540000e+00	bottomWall	(4.093137e-04 1.180047e-16 2.065478e-35)	(4.093137e-04 1.180047e-16 2.065478e-35)
1.550000e+00	bottomWall	(4.187988e-04 2.537715e-17 5.119429e-36)	(4.187988e-04 2.537715e-17 5.119429e-36)
1.560000e+00	bottomWall	(4.283763e-04 -4.635455e-17 -7.196580e-36)	(4.283763e-04 -4.635455e-17 -7.196580e-36)
1.570000e+00	bottomWall	(4.380471e-04 -3.187743e-17 -4.771566e-36)	(4.380471e-04 -3.187743e-17 -4.771566e-36)
1.580000e+00	bottomWall	(4.478118e-04 2.433464e-17 4.607580e-36)	(4.478118e-04 2.433464e-17 4.607580e-36)
1.590000e+00	bottomWall	(4.576710e-04 -1.187529e-17 -2.568409e-36)	(4.576710e-04 -1.187529e-17 -2.568409e-36)
1.600000e+00	bottomWall	(4.676246e-04 -3.062963e-17 -5.206698e-36)	(4.676246e-04 -3.062963e-17 -5.206698e-36)
1.610000e+00	bottomWall	(4.776724e-04 -6.913627e-17 -1.228295e-35)	(4.776724e-04 -6.913627e-17 -1.228295e-35)
1.620000e+00	bottomWall	(4.878140e-04 -1.139100e-16 -2.043668e-35)	(4.878140e-04 -1.139100e-16 -2.043668e-35)
1.630000e+00	bottomWall	(4.980487e-04 -1.907296e-17 -4.638939e-36)	(4.980487e-04 -1.907296e-17 -4.638939e-36)
1.640000e+00	bottomWall	(5.083758e-04 -2.680469e-18 -8.858408e-37)	(5.083758e-04 -2.680469e-18 -8.858408e-37)
1.650000e+00	bottomWall	(5.187940e-04 -4.939857e-18 -1.425349e-36)	(5.187940e-04 -4.939857e-18 -1.425349e-36)
1.660000e+00	bottomWall	(5.293023e-04 -3.907091e-17 -8.052551e-36)	(5.293023e-04 -3.907091e-17 -8.052551e-36)
1.670000e+00	bottomWall	(5.398992e-04 -3.810126e-17 -7.189183e-36)	(5.398992e-04 -3.810126e-17 -7.189183e-36)
1.680000e+00	bottomWall	(5.505832e-04 -5.224197e-17 -9.657213e-36)	(5.505832e-04 -5.224197e-17 -9.657213e-36)
1.690000e+00	bottomWall	(5.613525e-04 -4.470830e-17 -8.507936e-36)	(5.613525e-04 -4.470830e-17 -8.507936e-36)
1.700000e+00	bottomWall	(5.722056e-04 -3.582928e-17 -6.341572e-36)	(5.722056e-04 -3.582928e-17 -6.341572e-36)
1.710000e+00	bottomWall	(5.831404e-04 -4.445509e-17 -7.919937e-36)	(5.831404e-04 -4.445509e-17 -7.919937e-36)
1.720000e+00	bottomWall	(5.941549e-04 -5.272543e-17 -9.481097e-36)	(5.941549e-04 -5.272543e-17 -9.481097e-36)
1.730000e+00	bottomWall	(6.052472e-04 -4.915181e-17 -9.133046e-36)	(6.052472e-04 -4.915181e-17 -9.133046e-36)
1.740000e+00	bottomWall	(6.164150e-04 -4.938925e-17 -8.853794e-36)	(6.164150e-04 -4.938925e-17 -8.853794e-36)
1.750000e+00	bottomWall	(6.276560e-04 -5.019594e-17 -8.985246e-36)	(6.276560e-04 -5.019594e-17 -8.985246e-36)
1.760000e+00	bottomWall	(6.389681e-04 -5.065263e-17 -9.224181e-36)	(6.389681e-04 -5.065263e-17 -9.224181e-36)
1.770000e+00	bottomWall	(6.503488e-04 -5.101388e-17 -9.207689e-36)	(6.503488e-04 -5.101388e-17 -9.207689e-36)
1.780000e+00	bottomWall	(6.617958e-04 -4.987564e-17 -8.651567e-36)	(6.617958e-04 -4.987564e-17 -8.651567e-36)
1.790000e+00	bottomWall	(6.733065e-04 -5.487761e-17 -9.849512e-36)	(6.733065e-04 -5.487761e-17 -9.849512e-36)
1.800000e+00	bottomWall	(6.848785e-04 -5.876379e-17 -1.061900e-35)	(6.848785e-04 -5.876379e-17 -1.061900e-35)
1.810000e+00	bottomWall	(6.965091e-04 -4.802268e-17 -8.613090e-36)	(6.965091e-04 -4.802268e-17 -8.613090e-36)
1.820000e+00	bottomWall	(7.081959e-04 -8.135805e-17 -1.442220e-35)	(7.081959e-04 -8.135805e-17 -1.442220e-35)
1.830000e+00	bottomWall	(7.199362e-04 -5.910061e-17 -1.074639e-35)	(7.199362e-04 -5.910061e-17 -1.074639e-35)
1.840000e+00	bottomWall	(7.317274e-04 -5.304452e-17 -8.866407e-36)	(7.317274e-04 -5.304452e-17 -8.866407e-36)
1.850000e+00	bottomWall	(7.435667e-04 -5.308027e-17 -9.287925e-36)	(7.435667e-04 -5.308027e-17 -9.287925e-36)
1.860000e+00	bottomWall	(7.554515e-04 -5.218769e-18 -1.086375e-36)	(7.554515e-04 -5.218769e-18 -1.086375e-36)
1.870000e+00	bottomWall	(7.673791e-04 -1.027777e-17 -1.091157e-36)	(7.673791e-04 -1.027777e-17 -1.091157e-36)
1.880000e+00	bottomWall	(7.793466e-04 -7.349433e-17 -1.329489e-35)	(7.793466e-04 -7.349433e-17 -1.329489e-35)
1.890000e+00	bottomWall	(7.913515e-04 -1.500476e-16 -2.696226e-35)	(7.913515e-04 -1.500476e-16 -2.696226e-35)
1.900000e+00	bottomWall	(8.033908e-04 -1.289775e-16 -2.356141e-35)	(8.033908e-04 -1.289775e-16 -2.356141e-35)
1.910000e+00	bottomWall	(8.154617e-04 -1.001009e-16 -1.821785e-35)	(8.154617e-04 -1.001009e-16 -1.821785e-35)
1.920000e+00	bottomWall	(8.275616e-04 -5.760489e-17 -1.056735e-35)	(8.275616e-04 -5.760489e-17 -1.056735e-35)
1.930000e+00	bottomWall	(8.396875e-04 -3.727908e-17 -5.876203e-36)	(8.396875e-04 -3.727908e-17 -5.876203e-36)
1.940000e+00	bottomWall	(8.518366e-04 -1.100721e-16 -1.973019e-35)	(8.518366e-04 -1.100721e-16 -1.973019e-35)
1.950000e+00	bottomWall	(8.640062e-04 -9.294759e-17 -1.768303e-35)	(8.640062e-04 -9.294759e-17 -1.768303e-35)
1.960000e+00	bottomWall	(8.761933e-04 2.341962e-17 1.200941e-36)	(8.761933e-04 2.341962e-17 1.200941e-36)
1.970000e+00	bottomWall	(8.883951e-04 7.298277e-17 1.215718e-35)	(8.883951e-04 7.298277e-17 1.215718e-35)
1.980000e+00	bottomWall	(9.006087e-04 6.879589e-17 1.336732e-35)	(9.006087e-04 6.879589e-17 1.336732e-35)
1.990000e+00	bottomWall	(9.128314e-04 5.847442e-17 1.000890e-35)	(9.128314e-04 5.847442e-17 1.000890e-35)
2.000000e+00	bottomWall	(9.250601e-04 3.549212e-17 4.606223e-36)	(9.250601e-04 3.549212e-17 4.606223e-36)
2.010000e+00	bottomWall	(9.372921e-04 -1.811753e-16 -3.534470e-35)	(9.372921e-04 -1.811753e-16 -3.534470e-35)
2.020000e+00	bottomWall	(9.495244e-04 -4.202356e-16 -8.176731e-35)	(9.495244e-04 -4.202356e-16 -8.176731e-35)
2.030000e+00	bottomWall	(9.617543e-04 -4.135694e-16 -7.981677e-35)	(9.617543e-04 -4.135694e-16 -7.981677e-35)
2.040000e+00	bottomWall	(9.739788e-04 -3.538715e-16 -6.828456e-35)	(9.739788e-04 -3.538715e-16 -6.828456e-35)
2.050000e+00	bottomWall	(9.861950e-04 -2.513295e-16 -4.909304e-35)	(9.861950e-04 -2.513295e-16 -4.909304e-35)
2.060000e+00	bottomWall	(9.984000e-04 -2.312341e-16 -4.839024e-35)	(9.984000e-04 -2.312341e-16 -4.839024e-35)
2.070000e+00	bottomWall	(1.010591e-03 -2.240792e-16 -4.529306e-35)	(1.010591e-03 -2.240792e-16 -4.529306e-35)
2.080000e+00	bottomWall	(1.022765e-03 -1.882394e-16 -3.501094e-35)	(1.022765e-03 -1.882394e-16 -3.501094e-35)
2.090000e+00	bottomWall	(1.034920e-03 -6.575131e-18 -2.896468e-36)	(1.034920e-03 -6.575131e-18 -2.896468e-36)
2.100000e+00	bottomWall	(1.047051e-03 1.435813e-16 2.622343e-35)	(1.047051e-03 1.435813e-16 2.622343e-35)
2.110000e+00	bottomWall	(1.059157e-03 8.819729e-17 1.383569e-35)	(1.059157e-03 8.819729e-17 1.383569e-35)
2.120000e+00	bottomWall	(1.071235e-03 -3.339922e-17 -7.497282e-36)	(1.071235e-03 -3.339922e-17 -7.497282e-36)
2.130000e+00	bottomWall	(1.083282e-03 -1.853803e-16 -4.073460e-35)	(1.083282e-03 -1.853803e-16 -4.073460e-35)
2.140000e+00	bottomWall	(1.095294e-03 -1.819170e-16 -3.474985e-35)	(1.095294e-03 -1.819170e-16 -3.474985e-35)
2.150000e+00	bottomWall	(1.107269e-03 -1.571330e-16 -3.212281e-35)	(1.107269e-03 -1.571330e-16 -3.212281e-35)
2.160000e+00	bottomWall	(1.119205e-03 5.265692e-17 4.284645e-36)	(1.119205e-03 5.265692e-17 4.284645e-36)
2.170000e+00	bottomWall	(1.131098e-03 2.236086e-16 4.697375e-35)	(1.131098e-03 2.236086e-16 4.697375e-35)
2.180000e+00	bottomWall	(1.142945e-03 4.017673e-16 8.369144e-35)	(1.142945e-03 4.017673e-16 8.369144e-35)
2.190000e+00	bottomWall	(1.154744e-03 4.764198e-16 1.012941e-34)	(1.154744e-03 4.764198e-16 1.012941e-34)
2.200000e+00	bottomWall	(1.166492e-03 4.247984e-16 9.093253e-35)	(1.166492e-03 4.247984e-16 9.093253e-35)
2.210000e+00	bottomWall	(1.178186e-03 4.326173e-16 9.587082e-35)	(1.178186e-03 4.326173e-16 9.587082e-35)
2.220000e+00	bottomWall	(1.189823e-03 4.373406e-16 9.365740e-35)	(1.189823e-03 4.373406e-16 9.365740e-35)
2.230000e+00	bottomWall	(1.201401e-03 4.407879e-16 9.215997e-35)	(1.201401e-03 4.407879e-16 9.215997e-35)
2.240000e+00	bottomWall	(1.212916e-03 4.828947e-16 1.079158e-34)	(1.212916e-03 4.828947e-16 1.079158e-34)
2.250000e+00	bottomWall	(1.224366e-03 4.749712e-16 1.011156e-34)	(1.224366e-03 4.749712e-16 1.011156e-34)
2.260000e+00	bottomWall	(1.235748e-03 3.094150e-16 6.983520e-35)	(1.235748e-03 3.094150e-16 6.983520e-35)
2.270000e+00	bottomWall	(1.247059e-03 -1.793008e-16 -4.295990e-35)	(1.247059e-03 -1.793008e-16 -4.295990e-35)
2.280000e+00	bottomWall	(1.258297e-03 -5.355170e-16 -1.219021e-34)	(1.258297e-03 -5.355170e-16 -1.219021e-34)
2.290000e+00	bottomWall	(1.269459e-03 -9.845186e-16 -2.205130e-34)	(1.269459e-03 -9.845186e-16 -2.205130e-34)
2.300000e+00	bottomWall	(1.280541e-03 -1.421887e-15 -3.163954e-34)	(1.280541e-03 -1.421887e-15 -3.163954e-34)
2.310000e+00	bottomWall	(1.291543e-03 -1.648181e-15 -3.706459e-34)	(1.291543e-03 -1.648181e-15 -3.706459e-34)
2.320000e+00	bottomWall	(1.302459e-03 -1.491086e-15 -3.392999e-34)	(1.302459e-03 -1.491086e-15 -3.392999e-34)
2.330000e+00	bottomWall	(1.313289e-03 -1.351340e-15 -3.052977e-34)	(1.313289e-03 -1.351340e-15 -3.052977e-34)
2.340000e+00	bottomWall	(1.324029e-03 -1.093204e-15 -2.505893e-34)	(1.324029e-03 -1.093204e-15 -2.505893e-34)
2.350000e+00	bottomWall	(1.334677e-03 -9.068773e-16 -2.081324e-34)	(1.334677e-03 -9.068773e-16 -2.081324e-34)
2.360000e+00	bottomWall	(1.345230e-03 -7.173521e-16 -1.647267e-34)	(1.345230e-03 -7.173521e-16 -1.647267e-34)
2.370000e+00	bottomWall	(1.355686e-03 -5.388066e-16 -1.287722e-34)	(1.355686e-03 -5.388066e-16 -1.287722e-34)
2.380000e+00	bottomWall	(1.366041e-03 -3.974984e-16 -9.295996e-35)	(1.366041e-03 -3.974984e-16 -9.295996e-35)
2.390000e+00	bottomWall	(1.376293e-03 -3.610262e-16 -8.207297e-35)	(1.376293e-03 -3.610262e-16 -8.207297e-35)
2.400000e+00	bottomWall	(1.386441e-03 -2.961204e-16 -7.085339e-35)	(1.386441e-03 -2.961204e-16 -7.085339e-35)
2.410000e+00	bottomWall	(1.396480e-03 -2.620740e-16 -6.367776e-35)	(1.396480e-03 -2.620740e-16 -6.367776e-35)
2.420000e+00	bottomWall	(1.406409e-03 -2.697518e-16 -6.353403e-35)	(1.406409e-03 -2.697518e-16 -6.353403e-35)
2.430000e+00	bottomWall	(1.416225e-03 -1.767227e-16 -3.867010e-35)	(1.416225e-03 -1.767227e-16 -3.867010e-35)
2.440000e+00	bottomWall	(1.425926e-03 -1.543863e-16 -3.268090e-35)	(1.425926e-03 -1.543863e-16 -3.268090e-35)
2.450000e+00	bottomWall	(1.435508e-03 9.100879e-18 1.472895e-38)	(1.435508e-03 9.100879e-18 1.472895e-38)
2.460000e+00	bottomWall	(1.444971e-03 3.717855e-16 7.929308e-35)	(1.444971e-03 3.717855e-16 7.929308e-35)
2.470000e+00	bottomWall	(1.454311e-03 6.755103e-16 1.616550e-34)	(1.454311e-03 6.755103e-16 1.616550e-34)
2.480000e+00	bottomWall	(1.463525e-03 1.062197e-15 2.568645e-34)	(1.463525e-03 1.062197e-15 2.568645e-34)
2.490000e+00	bottomWall	(1.472613e-03 1.081630e-15 2.628302e-34)	(1.472613e-03 1.081630e-15 2.628302e-34)
2.500000e+00	bottomWall	(1.481570e-03 9.514787e-16 2.423959e-34)	(1.481570e-03 9.514787e-16 2.423959e-34)
2.510000e+00	bottomWall	(1.490395e-03 8.061269e-16 2.078120e-34)	(1.490395e-03 8.061269e-16 2.078120e-34)
2.520000e+00	bottomWall	(1.499086e-03 7.221452e-16 1.859418e-34)	(1.499086e-03 7.221452e-16 1.859418e-34)
2.530000e+00	bottomWall	(1.507640e-03 3.857703e-16 9.800123e-35)	(1.507640e-03 3.857703e-16 9.800123e-35)
2.540000e+00	bottomWall	(1.516054e-03 -1.115164e-17 3.471850e-36)	(1.516054e-03 -1.115164e-17 3.471850e-36)
2.550000e+00	bottomWall	(1.524328e-03 -3.325040e-16 -7.402654e-35)	(1.524328e-03 -3.325040e-16 -7.402654e-35)
2.560000e+00	bottomWall	(1.532458e-03 -5.909051e-16 -1.430333e-34)	(1.532458e-03 -5.909051e-16 -1.430333e-34)
2.570000e+00	bottomWall	(1.540443e-03 -8.015856e-16 -2.103386e-34)	(1.540443e-03 -8.015856e-16 -2.103386e-34)
2.580000e+00	bottomWall	(1.548279e-03 -6.161249e-16 -1.530625e-34)	(1.548279e-03 -6.161249e-16 -1.530625e-34)
2.590000e+00	bottomWall	(1.555966e-03 -4.190906e-16 -1.131819e-34)	(1.555966e-03 -4.190906e-16 -1.131819e-34)
2.600000e+00	bottomWall	(1.563501e-03 -3.407798e-16 -9.357163e-35)	(1.563501e-03 -3.407798e-16 -9.357163e-35)
2.610000e+00	bottomWall	(1.570882e-03 -2.101366e-16 -5.947449e-35)	(1.570882e-03 -2.101366e-16 -5.947449e-35)
2.620000e+00	bottomWall	(1.578106e-03 5.899295e-17 1.134546e-35)	(1.578106e-03 5.899295e-17 1.134546e-35)
2.630000e+00	bottomWall	(1.585173e-03 4.519631e-16 1.191676e-34)	(1.585173e-03 4.519631e-16 1.191676e-34)
2.640000e+00	bottomWall	(1.592079e-03 6.647237e-16 1.734352e-34)	(1.592079e-03 6.647237e-16 1.734352e-34)
2.650000e+00	bottomWall	(1.598824e-03 9.427268e-16 2.441289e-34)	(1.598824e-03 9.427268e-16 2.441289e-34)
2.660000e+00	bottomWall	(1.605405e-03 1.108574e-15 2.964796e-34)	(1.605405e-03 1.108574e-15 2.964796e-34)
2.670000e+00	bottomWall	(1.611819e-03 1.268217e-15 3.349705e-34)	(1.611819e-03 1.268217e-15 3.349705e-34)
2.680000e+00	bottomWall	(1.618067e-03 1.389236e-15 3.666654e-34)	(1.618067e-03 1.389236e-15 3.666654e-34)
2.690000e+00	bottomWall	(1.624144e-03 1.751270e-15 4.815241e-34)	(1.624144e-03 1.751270e-15 4.815241e-34)
2.700000e+00	bottomWall	(1.630051e-03 1.957633e-15 5.316187e-34)	(1.630051e-03 1.957633e-15 5.316187e-34)
2.710000e+00	bottomWall	(1.635785e-03 2.054710e-15 5.701328e-34)	(1.635785e-03 2.054710e-15 5.701328e-34)
2.720000e+00	bottomWall	(1.641344e-03 2.209676e-15 6.083337e-34)	(1.641344e-03 2.209676e-15 6.083337e-34)
2.730000e+00	bottomWall	(1.646726e-03 2.037697e-15 5.640453e-34)	(1.646726e-03 2.037697e-15 5.640453e-34)