# y+ ()       
# Time        	patch         	min           	max           	average       
0.01          	bottomWall	4.382238e-01	4.382238e-01	4.382238e-01
0.02          	bottomWall	3.723264e-01	3.723264e-01	3.723264e-01
0.03          	bottomWall	4.901828e-01	4.901828e-01	4.901828e-01
0.04          	bottomWall	5.203247e-01	5.203247e-01	5.203247e-01
0.05          	bottomWall	5.347944e-01	5.347944e-01	5.347944e-01
0.06          	bottomWall	5.424991e-01	5.424991e-01	5.424991e-01
0.07          	bottomWall	5.464503e-01	5.464503e-01	5.464503e-01
0.08          	bottomWall	5.480537e-01	5.480537e-01	5.480537e-01
0.09          	bottomWall	5.481156e-01	5.481156e-01	5.481156e-01
0.1           	bottomWall	5.471512e-01	5.471512e-01	5.471512e-01
0.11          	bottomWall	5.455033e-01	5.455033e-01	5.455033e-01
0.12          	bottomWall	5.434027e-01	5.434027e-01	5.434027e-01
0.13          	bottomWall	5.410050e-01	5.410050e-01	5.410050e-01
0.14          	bottomWall	5.384153e-01	5.384153e-01	5.384153e-01
0.15          	bottomWall	5.357041e-01	5.357041e-01	5.357041e-01
0.16          	bottomWall	5.329190e-01	5.329190e-01	5.329190e-01
0.17          	bottomWall	5.300913e-01	5.300913e-01	5.300913e-01
0.18          	bottomWall	5.272420e-01	5.272420e-01	5.272420e-01
0.19          	bottomWall	5.243844e-01	5.243844e-01	5.243844e-01
0.2           	bottomWall	5.215266e-01	5.215266e-01	5.215266e-01
0.21          	bottomWall	5.186733e-01	5.186733e-01	5.186733e-01
0.22          	bottomWall	5.158269e-01	5.158269e-01	5.158269e-01
0.23          	bottomWall	5.129878e-01	5.129878e-01	5.129878e-01
0.24          	bottomWall	5.101554e-01	5.101554e-01	5.101554e-01
0.25          	bottomWall	5.073285e-01	5.073285e-01	5.073285e-01
0.26          	bottomWall	5.045052e-01	5.045052e-01	5.045052e-01
0.27          	bottomWall	5.016834e-01	5.016834e-01	5.016834e-01
0.28          	bottomWall	4.988607e-01	4.988607e-01	4.988607e-01
0.29          	bottomWall	4.960347e-01	4.960347e-01	4.960347e-01
0.3           	bottomWall	4.932030e-01	4.932030e-01	4.932030e-01
0.31          	bottomWall	4.903632e-01	4.903632e-01	4.903632e-01
0.32          	bottomWall	4.875129e-01	4.875129e-01	4.875129e-01
0.33          	bottomWall	4.846498e-01	4.846498e-01	4.846498e-01
0.34          	bottomWall	4.817718e-01	4.817718e-01	4.817718e-01
0.35          	bottomWall	4.788766e-01	4.788766e-01	4.788766e-01
0.36          	bottomWall	4.759624e-01	4.759624e-01	4.759624e-01
0.37          	bottomWall	4.730270e-01	4.730270e-01	4.730270e-01
0.38          	bottomWall	4.700688e-01	4.700688e-01	4.700688e-01
0.39          	bottomWall	4.670859e-01	4.670859e-01	4.670859e-01
0.4           	bottomWall	4.640766e-01	4.640766e-01	4.640766e-01
0.41          	bottomWall	4.610394e-01	4.610394e-01	4.610394e-01
0.42          	bottomWall	4.579728e-01	4.579728e-01	4.579728e-01
0.43          	bottomWall	4.548752e-01	4.548752e-01	4.548752e-01
0.44          	bottomWall	4.517452e-01	4.517452e-01	4.517452e-01
0.45          	bottomWall	4.485816e-01	4.485816e-01	4.485816e-01
0.46          	bottomWall	4.453831e-01	4.453831e-01	4.453831e-01
0.47          	bottomWall	4.421484e-01	4.421484e-01	4.421484e-01
0.48          	bottomWall	4.388763e-01	4.388763e-01	4.388763e-01
0.49          	bottomWall	4.355657e-01	4.355657e-01	4.355657e-01
0.5           	bottomWall	4.322154e-01	4.322154e-01	4.322154e-01
0.51          	bottomWall	4.288243e-01	4.288243e-01	4.288243e-01
0.52          	bottomWall	4.253915e-01	4.253915e-01	4.253915e-01
0.53          	bottomWall	4.219157e-01	4.219157e-01	4.219157e-01
0.54          	bottomWall	4.183961e-01	4.183961e-01	4.183961e-01
0.55          	bottomWall	4.148316e-01	4.148316e-01	4.148316e-01
0.56          	bottomWall	4.112212e-01	4.112212e-01	4.112212e-01
0.57          	bottomWall	4.075639e-01	4.075639e-01	4.075639e-01
0.58          	bottomWall	4.038587e-01	4.038587e-01	4.038587e-01
0.59          	bottomWall	4.001045e-01	4.001045e-01	4.001045e-01
0.6           	bottomWall	3.963005e-01	3.963005e-01	3.963005e-01
0.61          	bottomWall	3.924455e-01	3.924455e-01	3.924455e-01
0.62          	bottomWall	3.885385e-01	3.885385e-01	3.885385e-01
0.63          	bottomWall	3.845785e-01	3.845785e-01	3.845785e-01
0.64          	bottomWall	3.805644e-01	3.805644e-01	3.805644e-01
0.65          	bottomWall	3.764951e-01	3.764951e-01	3.764951e-01
0.66          	bottomWall	3.723694e-01	3.723694e-01	3.723694e-01
0.67          	bottomWall	3.681861e-01	3.681861e-01	3.681861e-01
0.68          	bottomWall	3.639440e-01	3.639440e-01	3.639440e-01
0.69          	bottomWall	3.596419e-01	3.596419e-01	3.596419e-01
0.7           	bottomWall	3.552783e-01	3.552783e-01	3.552783e-01
0.71          	bottomWall	3.508519e-01	3.508519e-01	3.508519e-01
0.72          	bottomWall	3.463611e-01	3.463611e-01	3.463611e-01
0.73          	bottomWall	3.418044e-01	3.418044e-01	3.418044e-01
0.74          	bottomWall	3.371801e-01	3.371801e-01	3.371801e-01
0.75          	bottomWall	3.324864e-01	3.324864e-01	3.324864e-01
0.76          	bottomWall	3.277213e-01	3.277213e-01	3.277213e-01
0.77          	bottomWall	3.228828e-01	3.228828e-01	3.228828e-01
0.78          	bottomWall	3.179687e-01	3.179687e-01	3.179687e-01
0.79          	bottomWall	3.129767e-01	3.129767e-01	3.129767e-01
0.8           	bottomWall	3.079040e-01	3.079040e-01	3.079040e-01
0.81          	bottomWall	3.027480e-01	3.027480e-01	3.027480e-01
0.82          	bottomWall	2.975055e-01	2.975055e-01	2.975055e-01
0.83          	bottomWall	2.921732e-01	2.921732e-01	2.921732e-01
0.84          	bottomWall	2.867474e-01	2.867474e-01	2.867474e-01
0.85          	bottomWall	2.812241e-01	2.812241e-01	2.812241e-01
0.86          	bottomWall	2.755989e-01	2.755989e-01	2.755989e-01
0.87          	bottomWall	2.698667e-01	2.698667e-01	2.698667e-01
0.88          	bottomWall	2.640220e-01	2.640220e-01	2.640220e-01
0.89          	bottomWall	2.580587e-01	2.580587e-01	2.580587e-01
0.9           	bottomWall	2.519699e-01	2.519699e-01	2.519699e-01
0.91          	bottomWall	2.457477e-01	2.457477e-01	2.457477e-01
0.92          	bottomWall	2.393833e-01	2.393833e-01	2.393833e-01
0.93          	bottomWall	2.328664e-01	2.328664e-01	2.328664e-01
0.94          	bottomWall	2.261856e-01	2.261856e-01	2.261856e-01
0.95          	bottomWall	2.193273e-01	2.193273e-01	2.193273e-01
0.96          	bottomWall	2.122758e-01	2.122758e-01	2.122758e-01
0.97          	bottomWall	2.050127e-01	2.050127e-01	2.050127e-01
0.98          	bottomWall	1.975162e-01	1.975162e-01	1.975162e-01
0.99          	bottomWall	1.897600e-01	1.897600e-01	1.897600e-01
1             	bottomWall	1.817122e-01	1.817122e-01	1.817122e-01
1.01          	bottomWall	1.733334e-01	1.733334e-01	1.733334e-01
1.02          	bottomWall	1.645742e-01	1.645742e-01	1.645742e-01
1.03          	bottomWall	1.553713e-01	1.553713e-01	1.553713e-01
1.04          	bottomWall	1.456413e-01	1.456413e-01	1.456413e-01
1.05          	bottomWall	1.352709e-01	1.352709e-01	1.352709e-01
1.06          	bottomWall	1.240997e-01	1.240997e-01	1.240997e-01
1.07          	bottomWall	1.118872e-01	1.118872e-01	1.118872e-01
1.08          	bottomWall	9.824425e-02	9.824425e-02	9.824425e-02
1.09          	bottomWall	8.246024e-02	8.246024e-02	8.246024e-02
1.1           	bottomWall	6.293723e-02	6.293723e-02	6.293723e-02
1.11          	bottomWall	3.368595e-02	3.368595e-02	3.368595e-02
1.12          	bottomWall	4.100141e-02	4.100141e-02	4.100141e-02
1.13          	bottomWall	6.711942e-02	6.711942e-02	6.711942e-02
1.14          	bottomWall	8.547913e-02	8.547913e-02	8.547913e-02
1.15          	bottomWall	1.003803e-01	1.003803e-01	1.003803e-01
1.16          	bottomWall	1.131830e-01	1.131830e-01	1.131830e-01
1.17          	bottomWall	1.245343e-01	1.245343e-01	1.245343e-01
1.18          	bottomWall	1.348029e-01	1.348029e-01	1.348029e-01
1.19          	bottomWall	1.442230e-01	1.442230e-01	1.442230e-01
1.2           	bottomWall	1.529547e-01	1.529547e-01	1.529547e-01
1.21          	bottomWall	1.611136e-01	1.611136e-01	1.611136e-01
1.22          	bottomWall	1.687863e-01	1.687863e-01	1.687863e-01
1.23          	bottomWall	1.760403e-01	1.760403e-01	1.760403e-01
1.24          	bottomWall	1.829295e-01	1.829295e-01	1.829295e-01
1.25          	bottomWall	1.894977e-01	1.894977e-01	1.894977e-01
1.26          	bottomWall	1.957815e-01	1.957815e-01	1.957815e-01
1.27          	bottomWall	2.018118e-01	2.018118e-01	2.018118e-01
1.28          	bottomWall	2.076152e-01	2.076152e-01	2.076152e-01
1.29          	bottomWall	2.132147e-01	2.132147e-01	2.132147e-01
1.3           	bottomWall	2.186306e-01	2.186306e-01	2.186306e-01
1.31          	bottomWall	2.238809e-01	2.238809e-01	2.238809e-01
1.32          	bottomWall	2.289814e-01	2.289814e-01	2.289814e-01
1.33          	bottomWall	2.339467e-01	2.339467e-01	2.339467e-01
1.34          	bottomWall	2.387897e-01	2.387897e-01	2.387897e-01
1.35          	bottomWall	2.435222e-01	2.435222e-01	2.435222e-01
1.36          	bottomWall	2.481549e-01	2.481549e-01	2.481549e-01
1.37          	bottomWall	2.526974e-01	2.526974e-01	2.526974e-01
1.38          	bottomWall	2.571587e-01	2.571587e-01	2.571587e-01
1.39          	bottomWall	2.615468e-01	2.615468e-01	2.615468e-01
1.4           	bottomWall	2.658691e-01	2.658691e-01	2.658691e-01
1.41          	bottomWall	2.701324e-01	2.701324e-01	2.701324e-01
1.42          	bottomWall	2.743426e-01	2.743426e-01	2.743426e-01
1.43          	bottomWall	2.785052e-01	2.785052e-01	2.785052e-01
1.44          	bottomWall	2.826254e-01	2.826254e-01	2.826254e-01
1.45          	bottomWall	2.867075e-01	2.867075e-01	2.867075e-01
1.46          	bottomWall	2.907556e-01	2.907556e-01	2.907556e-01
1.47          	bottomWall	2.947733e-01	2.947733e-01	2.947733e-01
1.48          	bottomWall	2.987638e-01	2.987638e-01	2.987638e-01
1.49          	bottomWall	3.027299e-01	3.027299e-01	3.027299e-01
1.5           	bottomWall	3.066742e-01	3.066742e-01	3.066742e-01
1.51          	bottomWall	3.105989e-01	3.105989e-01	3.105989e-01
1.52          	bottomWall	3.145059e-01	3.145059e-01	3.145059e-01
1.53          	bottomWall	3.183969e-01	3.183969e-01	3.183969e-01
1.54          	bottomWall	3.222732e-01	3.222732e-01	3.222732e-01
1.55          	bottomWall	3.261361e-01	3.261361e-01	3.261361e-01
1.56          	bottomWall	3.299866e-01	3.299866e-01	3.299866e-01
1.57          	bottomWall	3.338256e-01	3.338256e-01	3.338256e-01
1.58          	bottomWall	3.376537e-01	3.376537e-01	3.376537e-01
1.59          	bottomWall	3.414714e-01	3.414714e-01	3.414714e-01
1.6           	bottomWall	3.452793e-01	3.452793e-01	3.452793e-01
1.61          	bottomWall	3.490776e-01	3.490776e-01	3.490776e-01
1.62          	bottomWall	3.528665e-01	3.528665e-01	3.528665e-01
1.63          	bottomWall	3.566462e-01	3.566462e-01	3.566462e-01
1.64          	bottomWall	3.604166e-01	3.604166e-01	3.604166e-01
1.65          	bottomWall	3.641778e-01	3.641778e-01	3.641778e-01
1.66          	bottomWall	3.679298e-01	3.679298e-01	3.679298e-01
1.67          	bottomWall	3.716723e-01	3.716723e-01	3.716723e-01
1.68          	bottomWall	3.754052e-01	3.754052e-01	3.754052e-01
1.69          	bottomWall	3.791283e-01	3.791283e-01	3.791283e-01
1.7           	bottomWall	3.828414e-01	3.828414e-01	3.828414e-01
1.71          	bottomWall	3.865442e-01	3.865442e-01	3.865442e-01
1.72          	bottomWall	3.902364e-01	3.902364e-01	3.902364e-01
1.73          	bottomWall	3.939177e-01	3.939177e-01	3.939177e-01
1.74          	bottomWall	3.975878e-01	3.975878e-01	3.975878e-01
1.75          	bottomWall	4.012464e-01	4.012464e-01	4.012464e-01
1.76          	bottomWall	4.048930e-01	4.048930e-01	4.048930e-01
1.77          	bottomWall	4.085275e-01	4.085275e-01	4.085275e-01
1.78          	bottomWall	4.121493e-01	4.121493e-01	4.121493e-01
1.79          	bottomWall	4.157581e-01	4.157581e-01	4.157581e-01
1.8           	bottomWall	4.193537e-01	4.193537e-01	4.193537e-01
1.81          	bottomWall	4.229355e-01	4.229355e-01	4.229355e-01
1.82          	bottomWall	4.265033e-01	4.265033e-01	4.265033e-01
1.83          	bottomWall	4.300567e-01	4.300567e-01	4.300567e-01
1.84          	bottomWall	4.335952e-01	4.335952e-01	4.335952e-01
1.85          	bottomWall	4.371187e-01	4.371187e-01	4.371187e-01
1.86          	bottomWall	4.406266e-01	4.406266e-01	4.406266e-01
1.87          	bottomWall	4.441187e-01	4.441187e-01	4.441187e-01
1.88          	bottomWall	4.475946e-01	4.475946e-01	4.475946e-01
1.89          	bottomWall	4.510539e-01	4.510539e-01	4.510539e-01
1.9           	bottomWall	4.544963e-01	4.544963e-01	4.544963e-01
1.91          	bottomWall	4.579215e-01	4.579215e-01	4.579215e-01
1.92          	bottomWall	4.613291e-01	4.613291e-01	4.613291e-01
1.93          	bottomWall	4.647188e-01	4.647188e-01	4.647188e-01
1.94          	bottomWall	4.680903e-01	4.680903e-01	4.680903e-01
1.95          	bottomWall	4.714432e-01	4.714432e-01	4.714432e-01
1.96          	bottomWall	4.747772e-01	4.747772e-01	4.747772e-01
1.97          	bottomWall	4.780921e-01	4.780921e-01	4.780921e-01
1.98          	bottomWall	4.813874e-01	4.813874e-01	4.813874e-01
1.99          	bottomWall	4.846629e-01	4.846629e-01	4.846629e-01
2             	bottomWall	4.879184e-01	4.879184e-01	4.879184e-01
2.01          	bottomWall	4.911534e-01	4.911534e-01	4.911534e-01
2.02          	bottomWall	4.943677e-01	4.943677e-01	4.943677e-01
2.03          	bottomWall	4.975610e-01	4.975610e-01	4.975610e-01
2.04          	bottomWall	5.007331e-01	5.007331e-01	5.007331e-01
2.05          	bottomWall	5.038836e-01	5.038836e-01	5.038836e-01
2.06          	bottomWall	5.070123e-01	5.070123e-01	5.070123e-01
2.07          	bottomWall	5.101189e-01	5.101189e-01	5.101189e-01
2.08          	bottomWall	5.132031e-01	5.132031e-01	5.132031e-01
2.09          	bottomWall	5.162646e-01	5.162646e-01	5.162646e-01
2.1           	bottomWall	5.193033e-01	5.193033e-01	5.193033e-01
2.11          	bottomWall	5.223188e-01	5.223188e-01	5.223188e-01
2.12          	bottomWall	5.253108e-01	5.253108e-01	5.253108e-01
2.13          	bottomWall	5.282792e-01	5.282792e-01	5.282792e-01
2.14          	bottomWall	5.312237e-01	5.312237e-01	5.312237e-01
2.15          	bottomWall	5.341440e-01	5.341440e-01	5.341440e-01
2.16          	bottomWall	5.370399e-01	5.370399e-01	5.370399e-01
2.17          	bottomWall	5.399111e-01	5.399111e-01	5.399111e-01
2.18          	bottomWall	5.427574e-01	5.427574e-01	5.427574e-01
2.19          	bottomWall	5.455786e-01	5.455786e-01	5.455786e-01
2.2           	bottomWall	5.483744e-01	5.483744e-01	5.483744e-01
2.21          	bottomWall	5.511446e-01	5.511446e-01	5.511446e-01
2.22          	bottomWall	5.538890e-01	5.538890e-01	5.538890e-01
2.23          	bottomWall	5.566073e-01	5.566073e-01	5.566073e-01
2.24          	bottomWall	5.592994e-01	5.592994e-01	5.592994e-01
2.25          	bottomWall	5.619649e-01	5.619649e-01	5.619649e-01
2.26          	bottomWall	5.646037e-01	5.646037e-01	5.646037e-01
2.27          	bottomWall	5.672156e-01	5.672156e-01	5.672156e-01
2.28          	bottomWall	5.698003e-01	5.698003e-01	5.698003e-01
2.29          	bottomWall	5.723577e-01	5.723577e-01	5.723577e-01
2.3           	bottomWall	5.748874e-01	5.748874e-01	5.748874e-01
2.31          	bottomWall	5.773894e-01	5.773894e-01	5.773894e-01
2.32          	bottomWall	5.798634e-01	5.798634e-01	5.798634e-01
2.33          	bottomWall	5.823092e-01	5.823092e-01	5.823092e-01
2.34          	bottomWall	5.847266e-01	5.847266e-01	5.847266e-01
2.35          	bottomWall	5.871153e-01	5.871153e-01	5.871153e-01
2.36          	bottomWall	5.894753e-01	5.894753e-01	5.894753e-01
2.37          	bottomWall	5.918062e-01	5.918062e-01	5.918062e-01
2.38          	bottomWall	5.941079e-01	5.941079e-01	5.941079e-01
2.39          	bottomWall	5.963803e-01	5.963803e-01	5.963803e-01
2.4           	bottomWall	5.986230e-01	5.986230e-01	5.986230e-01
2.41          	bottomWall	6.008360e-01	6.008360e-01	6.008360e-01
2.42          	bottomWall	6.030190e-01	6.030190e-01	6.030190e-01
2.43          	bottomWall	6.051718e-01	6.051718e-01	6.051718e-01
2.44          	bottomWall	6.072943e-01	6.072943e-01	6.072943e-01
2.45          	bottomWall	6.093862e-01	6.093862e-01	6.093862e-01
2.46          	bottomWall	6.114475e-01	6.114475e-01	6.114475e-01
2.47          	bottomWall	6.134778e-01	6.134778e-01	6.134778e-01
2.48          	bottomWall	6.154770e-01	6.154770e-01	6.154770e-01
2.49          	bottomWall	6.174450e-01	6.174450e-01	6.174450e-01
2.5           	bottomWall	6.193815e-01	6.193815e-01	6.193815e-01
2.51          	bottomWall	6.212865e-01	6.212865e-01	6.212865e-01
2.52          	bottomWall	6.231596e-01	6.231596e-01	6.231596e-01
2.53          	bottomWall	6.250008e-01	6.250008e-01	6.250008e-01
2.54          	bottomWall	6.268098e-01	6.268098e-01	6.268098e-01
2.55          	bottomWall	6.285866e-01	6.285866e-01	6.285866e-01
2.56          	bottomWall	6.303308e-01	6.303308e-01	6.303308e-01
2.57          	bottomWall	6.320425e-01	6.320425e-01	6.320425e-01
2.58          	bottomWall	6.337213e-01	6.337213e-01	6.337213e-01
2.59          	bottomWall	6.353671e-01	6.353671e-01	6.353671e-01
2.6           	bottomWall	6.369798e-01	6.369798e-01	6.369798e-01
2.61          	bottomWall	6.385592e-01	6.385592e-01	6.385592e-01
2.62          	bottomWall	6.401052e-01	6.401052e-01	6.401052e-01
2.63          	bottomWall	6.416175e-01	6.416175e-01	6.416175e-01
2.64          	bottomWall	6.430961e-01	6.430961e-01	6.430961e-01
2.65          	bottomWall	6.445407e-01	6.445407e-01	6.445407e-01
2.66          	bottomWall	6.459512e-01	6.459512e-01	6.459512e-01
2.67          	bottomWall	6.473275e-01	6.473275e-01	6.473275e-01
2.68          	bottomWall	6.486693e-01	6.486693e-01	6.486693e-01
2.69          	bottomWall	6.499766e-01	6.499766e-01	6.499766e-01
2.7           	bottomWall	6.512493e-01	6.512493e-01	6.512493e-01
2.71          	bottomWall	6.524870e-01	6.524870e-01	6.524870e-01
2.72          	bottomWall	6.536898e-01	6.536898e-01	6.536898e-01
2.73          	bottomWall	6.548574e-01	6.548574e-01	6.548574e-01
2.74          	bottomWall	6.559897e-01	6.559897e-01	6.559897e-01
2.75          	bottomWall	6.570866e-01	6.570866e-01	6.570866e-01
2.76          	bottomWall	6.581479e-01	6.581479e-01	6.581479e-01
2.77          	bottomWall	6.591735e-01	6.591735e-01	6.591735e-01
2.78          	bottomWall	6.601633e-01	6.601633e-01	6.601633e-01
2.79          	bottomWall	6.611170e-01	6.611170e-01	6.611170e-01
2.8           	bottomWall	6.620346e-01	6.620346e-01	6.620346e-01
2.81          	bottomWall	6.629159e-01	6.629159e-01	6.629159e-01
2.82          	bottomWall	6.637608e-01	6.637608e-01	6.637608e-01
2.83          	bottomWall	6.645692e-01	6.645692e-01	6.645692e-01
2.84          	bottomWall	6.653409e-01	6.653409e-01	6.653409e-01
2.85          	bottomWall	6.660758e-01	6.660758e-01	6.660758e-01
2.86          	bottomWall	6.667737e-01	6.667737e-01	6.667737e-01
2.87          	bottomWall	6.674346e-01	6.674346e-01	6.674346e-01
2.88          	bottomWall	6.680583e-01	6.680583e-01	6.680583e-01
2.89          	bottomWall	6.686447e-01	6.686447e-01	6.686447e-01
2.9           	bottomWall	6.691936e-01	6.691936e-01	6.691936e-01
2.91          	bottomWall	6.697050e-01	6.697050e-01	6.697050e-01
2.92          	bottomWall	6.701787e-01	6.701787e-01	6.701787e-01
2.93          	bottomWall	6.706146e-01	6.706146e-01	6.706146e-01
2.94          	bottomWall	6.710125e-01	6.710125e-01	6.710125e-01
2.95          	bottomWall	6.713724e-01	6.713724e-01	6.713724e-01
2.96          	bottomWall	6.716942e-01	6.716942e-01	6.716942e-01
2.97          	bottomWall	6.719777e-01	6.719777e-01	6.719777e-01
2.98          	bottomWall	6.722228e-01	6.722228e-01	6.722228e-01
2.99          	bottomWall	6.724294e-01	6.724294e-01	6.724294e-01
3             	bottomWall	6.725975e-01	6.725975e-01	6.725975e-01
3.01          	bottomWall	6.727268e-01	6.727268e-01	6.727268e-01
3.02          	bottomWall	6.728173e-01	6.728173e-01	6.728173e-01
3.03          	bottomWall	6.728689e-01	6.728689e-01	6.728689e-01
3.04          	bottomWall	6.728815e-01	6.728815e-01	6.728815e-01
3.05          	bottomWall	6.728550e-01	6.728550e-01	6.728550e-01
3.06          	bottomWall	6.727892e-01	6.727892e-01	6.727892e-01
3.07          	bottomWall	6.726842e-01	6.726842e-01	6.726842e-01
3.08          	bottomWall	6.725398e-01	6.725398e-01	6.725398e-01
3.09          	bottomWall	6.723559e-01	6.723559e-01	6.723559e-01
3.1           	bottomWall	6.721325e-01	6.721325e-01	6.721325e-01
3.11          	bottomWall	6.718694e-01	6.718694e-01	6.718694e-01
3.12          	bottomWall	6.715665e-01	6.715665e-01	6.715665e-01
3.13          	bottomWall	6.712239e-01	6.712239e-01	6.712239e-01
3.14          	bottomWall	6.708414e-01	6.708414e-01	6.708414e-01
3.15          	bottomWall	6.704190e-01	6.704190e-01	6.704190e-01
3.16          	bottomWall	6.699566e-01	6.699566e-01	6.699566e-01
3.17          	bottomWall	6.694542e-01	6.694542e-01	6.694542e-01
3.18          	bottomWall	6.689116e-01	6.689116e-01	6.689116e-01
3.19          	bottomWall	6.683289e-01	6.683289e-01	6.683289e-01
3.2           	bottomWall	6.677061e-01	6.677061e-01	6.677061e-01
3.21          	bottomWall	6.670430e-01	6.670430e-01	6.670430e-01
3.22          	bottomWall	6.663397e-01	6.663397e-01	6.663397e-01
3.23          	bottomWall	6.655961e-01	6.655961e-01	6.655961e-01
3.24          	bottomWall	6.648122e-01	6.648122e-01	6.648122e-01
3.25          	bottomWall	6.639881e-01	6.639881e-01	6.639881e-01
3.26          	bottomWall	6.631237e-01	6.631237e-01	6.631237e-01
3.27          	bottomWall	6.622190e-01	6.622190e-01	6.622190e-01
3.28          	bottomWall	6.612741e-01	6.612741e-01	6.612741e-01
3.29          	bottomWall	6.602889e-01	6.602889e-01	6.602889e-01
3.3           	bottomWall	6.592634e-01	6.592634e-01	6.592634e-01
3.31          	bottomWall	6.581976e-01	6.581976e-01	6.581976e-01
3.32          	bottomWall	6.570916e-01	6.570916e-01	6.570916e-01
3.33          	bottomWall	6.559454e-01	6.559454e-01	6.559454e-01
3.34          	bottomWall	6.547588e-01	6.547588e-01	6.547588e-01
3.35          	bottomWall	6.535319e-01	6.535319e-01	6.535319e-01
3.36          	bottomWall	6.522647e-01	6.522647e-01	6.522647e-01
3.37          	bottomWall	6.509571e-01	6.509571e-01	6.509571e-01
3.38          	bottomWall	6.496090e-01	6.496090e-01	6.496090e-01
3.39          	bottomWall	6.482205e-01	6.482205e-01	6.482205e-01
3.4           	bottomWall	6.467913e-01	6.467913e-01	6.467913e-01
3.41          	bottomWall	6.453214e-01	6.453214e-01	6.453214e-01
3.42          	bottomWall	6.438106e-01	6.438106e-01	6.438106e-01
3.43          	bottomWall	6.422589e-01	6.422589e-01	6.422589e-01
3.44          	bottomWall	6.406661e-01	6.406661e-01	6.406661e-01
3.45          	bottomWall	6.390320e-01	6.390320e-01	6.390320e-01
3.46          	bottomWall	6.373564e-01	6.373564e-01	6.373564e-01
3.47          	bottomWall	6.356392e-01	6.356392e-01	6.356392e-01
3.48          	bottomWall	6.338801e-01	6.338801e-01	6.338801e-01
3.49          	bottomWall	6.320789e-01	6.320789e-01	6.320789e-01
3.5           	bottomWall	6.302354e-01	6.302354e-01	6.302354e-01
3.51          	bottomWall	6.283493e-01	6.283493e-01	6.283493e-01
3.52          	bottomWall	6.264204e-01	6.264204e-01	6.264204e-01
3.53          	bottomWall	6.244484e-01	6.244484e-01	6.244484e-01
3.54          	bottomWall	6.224329e-01	6.224329e-01	6.224329e-01
3.55          	bottomWall	6.203738e-01	6.203738e-01	6.203738e-01
3.56          	bottomWall	6.182708e-01	6.182708e-01	6.182708e-01
3.57          	bottomWall	6.161234e-01	6.161234e-01	6.161234e-01
3.58          	bottomWall	6.139314e-01	6.139314e-01	6.139314e-01
3.59          	bottomWall	6.116945e-01	6.116945e-01	6.116945e-01
3.6           	bottomWall	6.094124e-01	6.094124e-01	6.094124e-01
3.61          	bottomWall	6.070847e-01	6.070847e-01	6.070847e-01
3.62          	bottomWall	6.047110e-01	6.047110e-01	6.047110e-01
3.63          	bottomWall	6.022910e-01	6.022910e-01	6.022910e-01
3.64          	bottomWall	5.998244e-01	5.998244e-01	5.998244e-01
3.65          	bottomWall	5.973108e-01	5.973108e-01	5.973108e-01
3.66          	bottomWall	5.947497e-01	5.947497e-01	5.947497e-01
3.67          	bottomWall	5.921410e-01	5.921410e-01	5.921410e-01
3.68          	bottomWall	5.894840e-01	5.894840e-01	5.894840e-01
3.69          	bottomWall	5.867786e-01	5.867786e-01	5.867786e-01
3.7           	bottomWall	5.840242e-01	5.840242e-01	5.840242e-01
3.71          	bottomWall	5.812205e-01	5.812205e-01	5.812205e-01
3.72          	bottomWall	5.783670e-01	5.783670e-01	5.783670e-01
3.73          	bottomWall	5.754633e-01	5.754633e-01	5.754633e-01
3.74          	bottomWall	5.725090e-01	5.725090e-01	5.725090e-01
3.75          	bottomWall	5.695037e-01	5.695037e-01	5.695037e-01
3.76          	bottomWall	5.664468e-01	5.664468e-01	5.664468e-01
3.77          	bottomWall	5.633380e-01	5.633380e-01	5.633380e-01
3.78          	bottomWall	5.601768e-01	5.601768e-01	5.601768e-01
3.79          	bottomWall	5.569626e-01	5.569626e-01	5.569626e-01
3.8           	bottomWall	5.536950e-01	5.536950e-01	5.536950e-01
3.81          	bottomWall	5.503734e-01	5.503734e-01	5.503734e-01
3.82          	bottomWall	5.469973e-01	5.469973e-01	5.469973e-01
3.83          	bottomWall	5.435662e-01	5.435662e-01	5.435662e-01
3.84          	bottomWall	5.400795e-01	5.400795e-01	5.400795e-01
3.85          	bottomWall	5.365366e-01	5.365366e-01	5.365366e-01
3.86          	bottomWall	5.329369e-01	5.329369e-01	5.329369e-01
3.87          	bottomWall	5.292797e-01	5.292797e-01	5.292797e-01
3.88          	bottomWall	5.255645e-01	5.255645e-01	5.255645e-01
3.89          	bottomWall	5.217904e-01	5.217904e-01	5.217904e-01
3.9           	bottomWall	5.179569e-01	5.179569e-01	5.179569e-01
3.91          	bottomWall	5.140631e-01	5.140631e-01	5.140631e-01
3.92          	bottomWall	5.101082e-01	5.101082e-01	5.101082e-01
3.93          	bottomWall	5.060915e-01	5.060915e-01	5.060915e-01
3.94          	bottomWall	5.020121e-01	5.020121e-01	5.020121e-01
3.95          	bottomWall	4.978691e-01	4.978691e-01	4.978691e-01
3.96          	bottomWall	4.936616e-01	4.936616e-01	4.936616e-01
3.97          	bottomWall	4.893885e-01	4.893885e-01	4.893885e-01
3.98          	bottomWall	4.850488e-01	4.850488e-01	4.850488e-01
3.99          	bottomWall	4.806414e-01	4.806414e-01	4.806414e-01
4             	bottomWall	4.761651e-01	4.761651e-01	4.761651e-01
4.01          	bottomWall	4.716188e-01	4.716188e-01	4.716188e-01
4.02          	bottomWall	4.670011e-01	4.670011e-01	4.670011e-01
4.03          	bottomWall	4.623106e-01	4.623106e-01	4.623106e-01
4.04          	bottomWall	4.575458e-01	4.575458e-01	4.575458e-01
4.05          	bottomWall	4.527052e-01	4.527052e-01	4.527052e-01
4.06          	bottomWall	4.477871e-01	4.477871e-01	4.477871e-01
4.07          	bottomWall	4.427898e-01	4.427898e-01	4.427898e-01
4.08          	bottomWall	4.377113e-01	4.377113e-01	4.377113e-01
4.09          	bottomWall	4.325496e-01	4.325496e-01	4.325496e-01
4.1           	bottomWall	4.273025e-01	4.273025e-01	4.273025e-01
4.11          	bottomWall	4.219677e-01	4.219677e-01	4.219677e-01
4.12          	bottomWall	4.165427e-01	4.165427e-01	4.165427e-01
4.13          	bottomWall	4.110247e-01	4.110247e-01	4.110247e-01
4.14          	bottomWall	4.054109e-01	4.054109e-01	4.054109e-01
4.15          	bottomWall	3.996980e-01	3.996980e-01	3.996980e-01
4.16          	bottomWall	3.938828e-01	3.938828e-01	3.938828e-01
4.17          	bottomWall	3.879613e-01	3.879613e-01	3.879613e-01
4.18          	bottomWall	3.819297e-01	3.819297e-01	3.819297e-01
4.19          	bottomWall	3.757835e-01	3.757835e-01	3.757835e-01
4.2           	bottomWall	3.695178e-01	3.695178e-01	3.695178e-01
4.21          	bottomWall	3.631274e-01	3.631274e-01	3.631274e-01
4.22          	bottomWall	3.566064e-01	3.566064e-01	3.566064e-01
4.23          	bottomWall	3.499485e-01	3.499485e-01	3.499485e-01
4.24          	bottomWall	3.431465e-01	3.431465e-01	3.431465e-01
4.25          	bottomWall	3.361926e-01	3.361926e-01	3.361926e-01
4.26          	bottomWall	3.290779e-01	3.290779e-01	3.290779e-01
4.27          	bottomWall	3.217927e-01	3.217927e-01	3.217927e-01
4.28          	bottomWall	3.143258e-01	3.143258e-01	3.143258e-01
4.29          	bottomWall	3.066648e-01	3.066648e-01	3.066648e-01
4.3           	bottomWall	2.987954e-01	2.987954e-01	2.987954e-01
4.31          	bottomWall	2.907014e-01	2.907014e-01	2.907014e-01
4.32          	bottomWall	2.823641e-01	2.823641e-01	2.823641e-01
4.33          	bottomWall	2.737619e-01	2.737619e-01	2.737619e-01
4.34          	bottomWall	2.648693e-01	2.648693e-01	2.648693e-01
4.35          	bottomWall	2.556564e-01	2.556564e-01	2.556564e-01
4.36          	bottomWall	2.460874e-01	2.460874e-01	2.460874e-01
4.37          	bottomWall	2.361193e-01	2.361193e-01	2.361193e-01
4.38          	bottomWall	2.256989e-01	2.256989e-01	2.256989e-01
4.39          	bottomWall	2.147600e-01	2.147600e-01	2.147600e-01
4.4           	bottomWall	2.032183e-01	2.032183e-01	2.032183e-01
4.41          	bottomWall	1.909635e-01	1.909635e-01	1.909635e-01
4.42          	bottomWall	1.778465e-01	1.778465e-01	1.778465e-01
4.43          	bottomWall	1.636578e-01	1.636578e-01	1.636578e-01
4.44          	bottomWall	1.480862e-01	1.480862e-01	1.480862e-01
4.45          	bottomWall	1.306332e-01	1.306332e-01	1.306332e-01
4.46          	bottomWall	1.104023e-01	1.104023e-01	1.104023e-01
4.47          	bottomWall	8.542939e-02	8.542939e-02	8.542939e-02
4.48          	bottomWall	4.889479e-02	4.889479e-02	4.889479e-02
4.49          	bottomWall	5.036744e-02	5.036744e-02	5.036744e-02
4.5           	bottomWall	8.669829e-02	8.669829e-02	8.669829e-02
4.51          	bottomWall	1.118949e-01	1.118949e-01	1.118949e-01
4.52          	bottomWall	1.323758e-01	1.323758e-01	1.323758e-01
4.53          	bottomWall	1.500275e-01	1.500275e-01	1.500275e-01
4.54          	bottomWall	1.657275e-01	1.657275e-01	1.657275e-01
4.55          	bottomWall	1.799711e-01	1.799711e-01	1.799711e-01
4.56          	bottomWall	1.930717e-01	1.930717e-01	1.930717e-01
4.57          	bottomWall	2.052427e-01	2.052427e-01	2.052427e-01
4.58          	bottomWall	2.166376e-01	2.166376e-01	2.166376e-01
4.59          	bottomWall	2.273715e-01	2.273715e-01	2.273715e-01
4.6           	bottomWall	2.375335e-01	2.375335e-01	2.375335e-01