# y+ ()       
# Time        	patch         	min           	max           	average       
0.01          	bottomWall	2.762366e-01	2.762366e-01	2.762366e-01
0.02          	bottomWall	2.323423e-01	2.323423e-01	2.323423e-01
0.03          	bottomWall	2.545471e-01	2.545471e-01	2.545471e-01
0.04          	bottomWall	2.618995e-01	2.618995e-01	2.618995e-01
0.05          	bottomWall	2.641171e-01	2.641171e-01	2.641171e-01
0.06          	bottomWall	2.648478e-01	2.648478e-01	2.648478e-01
0.07          	bottomWall	2.647287e-01	2.647287e-01	2.647287e-01
0.08          	bottomWall	2.640801e-01	2.640801e-01	2.640801e-01
0.09          	bottomWall	2.630867e-01	2.630867e-01	2.630867e-01
0.1           	bottomWall	2.618623e-01	2.618623e-01	2.618623e-01
0.11          	bottomWall	2.604797e-01	2.604797e-01	2.604797e-01
0.12          	bottomWall	2.589868e-01	2.589868e-01	2.589868e-01
0.13          	bottomWall	2.574150e-01	2.574150e-01	2.574150e-01
0.14          	bottomWall	2.557857e-01	2.557857e-01	2.557857e-01
0.15          	bottomWall	2.541130e-01	2.541130e-01	2.541130e-01
0.16          	bottomWall	2.524063e-01	2.524063e-01	2.524063e-01
0.17          	bottomWall	2.506718e-01	2.506718e-01	2.506718e-01
0.18          	bottomWall	2.489133e-01	2.489133e-01	2.489133e-01
0.19          	bottomWall	2.471333e-01	2.471333e-01	2.471333e-01
0.2           	bottomWall	2.453330e-01	2.453330e-01	2.453330e-01
0.21          	bottomWall	2.435127e-01	2.435127e-01	2.435127e-01
0.22          	bottomWall	2.416725e-01	2.416725e-01	2.416725e-01
0.23          	bottomWall	2.398119e-01	2.398119e-01	2.398119e-01
0.24          	bottomWall	2.379302e-01	2.379302e-01	2.379302e-01
0.25          	bottomWall	2.360266e-01	2.360266e-01	2.360266e-01
0.26          	bottomWall	2.341001e-01	2.341001e-01	2.341001e-01
0.27          	bottomWall	2.321498e-01	2.321498e-01	2.321498e-01
0.28          	bottomWall	2.301745e-01	2.301745e-01	2.301745e-01
0.29          	bottomWall	2.281732e-01	2.281732e-01	2.281732e-01
0.3           	bottomWall	2.261448e-01	2.261448e-01	2.261448e-01
0.31          	bottomWall	2.240883e-01	2.240883e-01	2.240883e-01
0.32          	bottomWall	2.220027e-01	2.220027e-01	2.220027e-01
0.33          	bottomWall	2.198869e-01	2.198869e-01	2.198869e-01
0.34          	bottomWall	2.177399e-01	2.177399e-01	2.177399e-01
0.35          	bottomWall	2.155607e-01	2.155607e-01	2.155607e-01
0.36          	bottomWall	2.133484e-01	2.133484e-01	2.133484e-01
0.37          	bottomWall	2.111021e-01	2.111021e-01	2.111021e-01
0.38          	bottomWall	2.088207e-01	2.088207e-01	2.088207e-01
0.39          	bottomWall	2.065034e-01	2.065034e-01	2.065034e-01
0.4           	bottomWall	2.041492e-01	2.041492e-01	2.041492e-01
0.41          	bottomWall	2.017572e-01	2.017572e-01	2.017572e-01
0.42          	bottomWall	1.993265e-01	1.993265e-01	1.993265e-01
0.43          	bottomWall	1.968562e-01	1.968562e-01	1.968562e-01
0.44          	bottomWall	1.943452e-01	1.943452e-01	1.943452e-01
0.45          	bottomWall	1.917925e-01	1.917925e-01	1.917925e-01
0.46          	bottomWall	1.891973e-01	1.891973e-01	1.891973e-01
0.47          	bottomWall	1.865583e-01	1.865583e-01	1.865583e-01
0.48          	bottomWall	1.838746e-01	1.838746e-01	1.838746e-01
0.49          	bottomWall	1.811450e-01	1.811450e-01	1.811450e-01
0.5           	bottomWall	1.783681e-01	1.783681e-01	1.783681e-01
0.51          	bottomWall	1.755429e-01	1.755429e-01	1.755429e-01
0.52          	bottomWall	1.726677e-01	1.726677e-01	1.726677e-01
0.53          	bottomWall	1.697413e-01	1.697413e-01	1.697413e-01
0.54          	bottomWall	1.667619e-01	1.667619e-01	1.667619e-01
0.55          	bottomWall	1.637277e-01	1.637277e-01	1.637277e-01
0.56          	bottomWall	1.606370e-01	1.606370e-01	1.606370e-01
0.57          	bottomWall	1.574875e-01	1.574875e-01	1.574875e-01
0.58          	bottomWall	1.542769e-01	1.542769e-01	1.542769e-01
0.59          	bottomWall	1.510026e-01	1.510026e-01	1.510026e-01
0.6           	bottomWall	1.476618e-01	1.476618e-01	1.476618e-01
0.61          	bottomWall	1.442511e-01	1.442511e-01	1.442511e-01
0.62          	bottomWall	1.407670e-01	1.407670e-01	1.407670e-01
0.63          	bottomWall	1.372053e-01	1.372053e-01	1.372053e-01
0.64          	bottomWall	1.335612e-01	1.335612e-01	1.335612e-01
0.65          	bottomWall	1.298294e-01	1.298294e-01	1.298294e-01
0.66          	bottomWall	1.260034e-01	1.260034e-01	1.260034e-01
0.67          	bottomWall	1.220761e-01	1.220761e-01	1.220761e-01
0.68          	bottomWall	1.180388e-01	1.180388e-01	1.180388e-01
0.69          	bottomWall	1.138814e-01	1.138814e-01	1.138814e-01
0.7           	bottomWall	1.095918e-01	1.095918e-01	1.095918e-01
0.71          	bottomWall	1.051551e-01	1.051551e-01	1.051551e-01
0.72          	bottomWall	1.005535e-01	1.005535e-01	1.005535e-01
0.73          	bottomWall	9.576447e-02	9.576447e-02	9.576447e-02
0.74          	bottomWall	9.075967e-02	9.075967e-02	9.075967e-02
0.75          	bottomWall	8.550233e-02	8.550233e-02	8.550233e-02
0.76          	bottomWall	7.994354e-02	7.994354e-02	7.994354e-02
0.77          	bottomWall	7.401605e-02	7.401605e-02	7.401605e-02
0.78          	bottomWall	6.762312e-02	6.762312e-02	6.762312e-02
0.79          	bottomWall	6.061716e-02	6.061716e-02	6.061716e-02
0.8           	bottomWall	5.275281e-02	5.275281e-02	5.275281e-02
0.81          	bottomWall	4.356389e-02	4.356389e-02	4.356389e-02
0.82          	bottomWall	3.191757e-02	3.191757e-02	3.191757e-02
0.83          	bottomWall	1.202661e-02	1.202661e-02	1.202661e-02
0.84          	bottomWall	2.694649e-02	2.694649e-02	2.694649e-02
0.85          	bottomWall	3.997940e-02	3.997940e-02	3.997940e-02
0.86          	bottomWall	4.950709e-02	4.950709e-02	4.950709e-02
0.87          	bottomWall	5.732369e-02	5.732369e-02	5.732369e-02
0.88          	bottomWall	6.406980e-02	6.406980e-02	6.406980e-02
0.89          	bottomWall	7.006406e-02	7.006406e-02	7.006406e-02
0.9           	bottomWall	7.549271e-02	7.549271e-02	7.549271e-02
0.91          	bottomWall	8.047615e-02	8.047615e-02	8.047615e-02
0.92          	bottomWall	8.509796e-02	8.509796e-02	8.509796e-02
0.93          	bottomWall	8.941927e-02	8.941927e-02	8.941927e-02
0.94          	bottomWall	9.348662e-02	9.348662e-02	9.348662e-02
0.95          	bottomWall	9.733668e-02	9.733668e-02	9.733668e-02
0.96          	bottomWall	1.009991e-01	1.009991e-01	1.009991e-01
0.97          	bottomWall	1.044983e-01	1.044983e-01	1.044983e-01
0.98          	bottomWall	1.078550e-01	1.078550e-01	1.078550e-01
0.99          	bottomWall	1.110869e-01	1.110869e-01	1.110869e-01
1             	bottomWall	1.142091e-01	1.142091e-01	1.142091e-01
1.01          	bottomWall	1.172351e-01	1.172351e-01	1.172351e-01
1.02          	bottomWall	1.201766e-01	1.201766e-01	1.201766e-01
1.03          	bottomWall	1.230441e-01	1.230441e-01	1.230441e-01
1.04          	bottomWall	1.258467e-01	1.258467e-01	1.258467e-01
1.05          	bottomWall	1.285928e-01	1.285928e-01	1.285928e-01
1.06          	bottomWall	1.312897e-01	1.312897e-01	1.312897e-01
1.07          	bottomWall	1.339439e-01	1.339439e-01	1.339439e-01
1.08          	bottomWall	1.365611e-01	1.365611e-01	1.365611e-01
1.09          	bottomWall	1.391467e-01	1.391467e-01	1.391467e-01
1.1           	bottomWall	1.417049e-01	1.417049e-01	1.417049e-01
1.11          	bottomWall	1.442399e-01	1.442399e-01	1.442399e-01
1.12          	bottomWall	1.467550e-01	1.467550e-01	1.467550e-01
1.13          	bottomWall	1.492531e-01	1.492531e-01	1.492531e-01
1.14          	bottomWall	1.517369e-01	1.517369e-01	1.517369e-01
1.15          	bottomWall	1.542085e-01	1.542085e-01	1.542085e-01
1.16          	bottomWall	1.566696e-01	1.566696e-01	1.566696e-01
1.17          	bottomWall	1.591218e-01	1.591218e-01	1.591218e-01
1.18          	bottomWall	1.615662e-01	1.615662e-01	1.615662e-01
1.19          	bottomWall	1.640038e-01	1.640038e-01	1.640038e-01
1.2           	bottomWall	1.664354e-01	1.664354e-01	1.664354e-01
1.21          	bottomWall	1.688613e-01	1.688613e-01	1.688613e-01
1.22          	bottomWall	1.712821e-01	1.712821e-01	1.712821e-01
1.23          	bottomWall	1.736980e-01	1.736980e-01	1.736980e-01
1.24          	bottomWall	1.761089e-01	1.761089e-01	1.761089e-01
1.25          	bottomWall	1.785150e-01	1.785150e-01	1.785150e-01
1.26          	bottomWall	1.809161e-01	1.809161e-01	1.809161e-01
1.27          	bottomWall	1.833120e-01	1.833120e-01	1.833120e-01
1.28          	bottomWall	1.857025e-01	1.857025e-01	1.857025e-01
1.29          	bottomWall	1.880873e-01	1.880873e-01	1.880873e-01
1.3           	bottomWall	1.904660e-01	1.904660e-01	1.904660e-01
1.31          	bottomWall	1.928383e-01	1.928383e-01	1.928383e-01
1.32          	bottomWall	1.952037e-01	1.952037e-01	1.952037e-01
1.33          	bottomWall	1.975618e-01	1.975618e-01	1.975618e-01
1.34          	bottomWall	1.999122e-01	1.999122e-01	1.999122e-01
1.35          	bottomWall	2.022544e-01	2.022544e-01	2.022544e-01
1.36          	bottomWall	2.045879e-01	2.045879e-01	2.045879e-01
1.37          	bottomWall	2.069123e-01	2.069123e-01	2.069123e-01
1.38          	bottomWall	2.092271e-01	2.092271e-01	2.092271e-01
1.39          	bottomWall	2.115318e-01	2.115318e-01	2.115318e-01
1.4           	bottomWall	2.138260e-01	2.138260e-01	2.138260e-01
1.41          	bottomWall	2.161091e-01	2.161091e-01	2.161091e-01
1.42          	bottomWall	2.183807e-01	2.183807e-01	2.183807e-01
1.43          	bottomWall	2.206404e-01	2.206404e-01	2.206404e-01
1.44          	bottomWall	2.228877e-01	2.228877e-01	2.228877e-01
1.45          	bottomWall	2.251220e-01	2.251220e-01	2.251220e-01
1.46          	bottomWall	2.273431e-01	2.273431e-01	2.273431e-01
1.47          	bottomWall	2.295505e-01	2.295505e-01	2.295505e-01
1.48          	bottomWall	2.317436e-01	2.317436e-01	2.317436e-01
1.49          	bottomWall	2.339222e-01	2.339222e-01	2.339222e-01
1.5           	bottomWall	2.360858e-01	2.360858e-01	2.360858e-01
1.51          	bottomWall	2.382339e-01	2.382339e-01	2.382339e-01
1.52          	bottomWall	2.403663e-01	2.403663e-01	2.403663e-01
1.53          	bottomWall	2.424824e-01	2.424824e-01	2.424824e-01
1.54          	bottomWall	2.445819e-01	2.445819e-01	2.445819e-01
1.55          	bottomWall	2.466645e-01	2.466645e-01	2.466645e-01
1.56          	bottomWall	2.487297e-01	2.487297e-01	2.487297e-01
1.57          	bottomWall	2.507772e-01	2.507772e-01	2.507772e-01
1.58          	bottomWall	2.528066e-01	2.528066e-01	2.528066e-01
1.59          	bottomWall	2.548176e-01	2.548176e-01	2.548176e-01
1.6           	bottomWall	2.568098e-01	2.568098e-01	2.568098e-01
1.61          	bottomWall	2.587829e-01	2.587829e-01	2.587829e-01
1.62          	bottomWall	2.607366e-01	2.607366e-01	2.607366e-01
1.63          	bottomWall	2.626704e-01	2.626704e-01	2.626704e-01
1.64          	bottomWall	2.645842e-01	2.645842e-01	2.645842e-01
1.65          	bottomWall	2.664775e-01	2.664775e-01	2.664775e-01
1.66          	bottomWall	2.683501e-01	2.683501e-01	2.683501e-01
1.67          	bottomWall	2.702016e-01	2.702016e-01	2.702016e-01
1.68          	bottomWall	2.720317e-01	2.720317e-01	2.720317e-01
1.69          	bottomWall	2.738402e-01	2.738402e-01	2.738402e-01
1.7           	bottomWall	2.756267e-01	2.756267e-01	2.756267e-01
1.71          	bottomWall	2.773909e-01	2.773909e-01	2.773909e-01
1.72          	bottomWall	2.791326e-01	2.791326e-01	2.791326e-01
1.73          	bottomWall	2.808515e-01	2.808515e-01	2.808515e-01
1.74          	bottomWall	2.825472e-01	2.825472e-01	2.825472e-01
1.75          	bottomWall	2.842195e-01	2.842195e-01	2.842195e-01
1.76          	bottomWall	2.858682e-01	2.858682e-01	2.858682e-01
1.77          	bottomWall	2.874929e-01	2.874929e-01	2.874929e-01
1.78          	bottomWall	2.890934e-01	2.890934e-01	2.890934e-01
1.79          	bottomWall	2.906695e-01	2.906695e-01	2.906695e-01
1.8           	bottomWall	2.922208e-01	2.922208e-01	2.922208e-01
1.81          	bottomWall	2.937471e-01	2.937471e-01	2.937471e-01
1.82          	bottomWall	2.952481e-01	2.952481e-01	2.952481e-01
1.83          	bottomWall	2.967237e-01	2.967237e-01	2.967237e-01
1.84          	bottomWall	2.981735e-01	2.981735e-01	2.981735e-01
1.85          	bottomWall	2.995973e-01	2.995973e-01	2.995973e-01
1.86          	bottomWall	3.009948e-01	3.009948e-01	3.009948e-01
1.87          	bottomWall	3.023659e-01	3.023659e-01	3.023659e-01
1.88          	bottomWall	3.037103e-01	3.037103e-01	3.037103e-01
1.89          	bottomWall	3.050277e-01	3.050277e-01	3.050277e-01
1.9           	bottomWall	3.063180e-01	3.063180e-01	3.063180e-01
1.91          	bottomWall	3.075808e-01	3.075808e-01	3.075808e-01
1.92          	bottomWall	3.088160e-01	3.088160e-01	3.088160e-01
1.93          	bottomWall	3.100234e-01	3.100234e-01	3.100234e-01
1.94          	bottomWall	3.112027e-01	3.112027e-01	3.112027e-01
1.95          	bottomWall	3.123537e-01	3.123537e-01	3.123537e-01
1.96          	bottomWall	3.134762e-01	3.134762e-01	3.134762e-01
1.97          	bottomWall	3.145699e-01	3.145699e-01	3.145699e-01
1.98          	bottomWall	3.156348e-01	3.156348e-01	3.156348e-01
1.99          	bottomWall	3.166705e-01	3.166705e-01	3.166705e-01
2             	bottomWall	3.176769e-01	3.176769e-01	3.176769e-01
2.01          	bottomWall	3.186537e-01	3.186537e-01	3.186537e-01
2.02          	bottomWall	3.196009e-01	3.196009e-01	3.196009e-01
2.03          	bottomWall	3.205180e-01	3.205180e-01	3.205180e-01
2.04          	bottomWall	3.214051e-01	3.214051e-01	3.214051e-01
2.05          	bottomWall	3.222618e-01	3.222618e-01	3.222618e-01
2.06          	bottomWall	3.230881e-01	3.230881e-01	3.230881e-01
2.07          	bottomWall	3.238836e-01	3.238836e-01	3.238836e-01
2.08          	bottomWall	3.246483e-01	3.246483e-01	3.246483e-01
2.09          	bottomWall	3.253819e-01	3.253819e-01	3.253819e-01
2.1           	bottomWall	3.260843e-01	3.260843e-01	3.260843e-01
2.11          	bottomWall	3.267553e-01	3.267553e-01	3.267553e-01
2.12          	bottomWall	3.273947e-01	3.273947e-01	3.273947e-01
2.13          	bottomWall	3.280023e-01	3.280023e-01	3.280023e-01
2.14          	bottomWall	3.285781e-01	3.285781e-01	3.285781e-01
2.15          	bottomWall	3.291217e-01	3.291217e-01	3.291217e-01
2.16          	bottomWall	3.296331e-01	3.296331e-01	3.296331e-01
2.17          	bottomWall	3.301121e-01	3.301121e-01	3.301121e-01
2.18          	bottomWall	3.305586e-01	3.305586e-01	3.305586e-01
2.19          	bottomWall	3.309723e-01	3.309723e-01	3.309723e-01
2.2           	bottomWall	3.313531e-01	3.313531e-01	3.313531e-01
2.21          	bottomWall	3.317009e-01	3.317009e-01	3.317009e-01
2.22          	bottomWall	3.320155e-01	3.320155e-01	3.320155e-01
2.23          	bottomWall	3.322968e-01	3.322968e-01	3.322968e-01
2.24          	bottomWall	3.325447e-01	3.325447e-01	3.325447e-01
2.25          	bottomWall	3.327589e-01	3.327589e-01	3.327589e-01
2.26          	bottomWall	3.329394e-01	3.329394e-01	3.329394e-01
2.27          	bottomWall	3.330861e-01	3.330861e-01	3.330861e-01
2.28          	bottomWall	3.331987e-01	3.331987e-01	3.331987e-01
2.29          	bottomWall	3.332772e-01	3.332772e-01	3.332772e-01
2.3           	bottomWall	3.333214e-01	3.333214e-01	3.333214e-01
2.31          	bottomWall	3.333312e-01	3.333312e-01	3.333312e-01
2.32          	bottomWall	3.333065e-01	3.333065e-01	3.333065e-01
2.33          	bottomWall	3.332471e-01	3.332471e-01	3.332471e-01
2.34          	bottomWall	3.331530e-01	3.331530e-01	3.331530e-01
2.35          	bottomWall	3.330240e-01	3.330240e-01	3.330240e-01
2.36          	bottomWall	3.328600e-01	3.328600e-01	3.328600e-01
2.37          	bottomWall	3.326609e-01	3.326609e-01	3.326609e-01
2.38          	bottomWall	3.324265e-01	3.324265e-01	3.324265e-01
2.39          	bottomWall	3.321569e-01	3.321569e-01	3.321569e-01
2.4           	bottomWall	3.318518e-01	3.318518e-01	3.318518e-01
2.41          	bottomWall	3.315111e-01	3.315111e-01	3.315111e-01
2.42          	bottomWall	3.311348e-01	3.311348e-01	3.311348e-01
2.43          	bottomWall	3.307227e-01	3.307227e-01	3.307227e-01
2.44          	bottomWall	3.302748e-01	3.302748e-01	3.302748e-01
2.45          	bottomWall	3.297909e-01	3.297909e-01	3.297909e-01
2.46          	bottomWall	3.292710e-01	3.292710e-01	3.292710e-01
2.47          	bottomWall	3.287149e-01	3.287149e-01	3.287149e-01
2.48          	bottomWall	3.281225e-01	3.281225e-01	3.281225e-01
2.49          	bottomWall	3.274937e-01	3.274937e-01	3.274937e-01
2.5           	bottomWall	3.268284e-01	3.268284e-01	3.268284e-01
2.51          	bottomWall	3.261266e-01	3.261266e-01	3.261266e-01
2.52          	bottomWall	3.253881e-01	3.253881e-01	3.253881e-01
2.53          	bottomWall	3.246127e-01	3.246127e-01	3.246127e-01
2.54          	bottomWall	3.238004e-01	3.238004e-01	3.238004e-01
2.55          	bottomWall	3.229511e-01	3.229511e-01	3.229511e-01
2.56          	bottomWall	3.220646e-01	3.220646e-01	3.220646e-01
2.57          	bottomWall	3.211408e-01	3.211408e-01	3.211408e-01
2.58          	bottomWall	3.201795e-01	3.201795e-01	3.201795e-01
2.59          	bottomWall	3.191806e-01	3.191806e-01	3.191806e-01
2.6           	bottomWall	3.181440e-01	3.181440e-01	3.181440e-01
2.61          	bottomWall	3.170695e-01	3.170695e-01	3.170695e-01
2.62          	bottomWall	3.159568e-01	3.159568e-01	3.159568e-01
2.63          	bottomWall	3.148059e-01	3.148059e-01	3.148059e-01
2.64          	bottomWall	3.136165e-01	3.136165e-01	3.136165e-01
2.65          	bottomWall	3.123885e-01	3.123885e-01	3.123885e-01
2.66          	bottomWall	3.111215e-01	3.111215e-01	3.111215e-01
2.67          	bottomWall	3.098155e-01	3.098155e-01	3.098155e-01
2.68          	bottomWall	3.084701e-01	3.084701e-01	3.084701e-01
2.69          	bottomWall	3.070851e-01	3.070851e-01	3.070851e-01
2.7           	bottomWall	3.056602e-01	3.056602e-01	3.056602e-01
2.71          	bottomWall	3.041952e-01	3.041952e-01	3.041952e-01
2.72          	bottomWall	3.026898e-01	3.026898e-01	3.026898e-01
2.73          	bottomWall	3.011438e-01	3.011438e-01	3.011438e-01
2.74          	bottomWall	2.995567e-01	2.995567e-01	2.995567e-01
2.75          	bottomWall	2.979283e-01	2.979283e-01	2.979283e-01
2.76          	bottomWall	2.962582e-01	2.962582e-01	2.962582e-01
2.77          	bottomWall	2.945462e-01	2.945462e-01	2.945462e-01
2.78          	bottomWall	2.927918e-01	2.927918e-01	2.927918e-01
2.79          	bottomWall	2.909947e-01	2.909947e-01	2.909947e-01
2.8           	bottomWall	2.891545e-01	2.891545e-01	2.891545e-01
2.81          	bottomWall	2.872708e-01	2.872708e-01	2.872708e-01
2.82          	bottomWall	2.853433e-01	2.853433e-01	2.853433e-01
2.83          	bottomWall	2.833714e-01	2.833714e-01	2.833714e-01
2.84          	bottomWall	2.813548e-01	2.813548e-01	2.813548e-01
2.85          	bottomWall	2.792929e-01	2.792929e-01	2.792929e-01
2.86          	bottomWall	2.771853e-01	2.771853e-01	2.771853e-01
2.87          	bottomWall	2.750316e-01	2.750316e-01	2.750316e-01
2.88          	bottomWall	2.728311e-01	2.728311e-01	2.728311e-01
2.89          	bottomWall	2.705833e-01	2.705833e-01	2.705833e-01
2.9           	bottomWall	2.682876e-01	2.682876e-01	2.682876e-01
2.91          	bottomWall	2.659435e-01	2.659435e-01	2.659435e-01
2.92          	bottomWall	2.635503e-01	2.635503e-01	2.635503e-01
2.93          	bottomWall	2.611073e-01	2.611073e-01	2.611073e-01
2.94          	bottomWall	2.586139e-01	2.586139e-01	2.586139e-01
2.95          	bottomWall	2.560691e-01	2.560691e-01	2.560691e-01
2.96          	bottomWall	2.534723e-01	2.534723e-01	2.534723e-01
2.97          	bottomWall	2.508226e-01	2.508226e-01	2.508226e-01
2.98          	bottomWall	2.481191e-01	2.481191e-01	2.481191e-01
2.99          	bottomWall	2.453607e-01	2.453607e-01	2.453607e-01
3             	bottomWall	2.425465e-01	2.425465e-01	2.425465e-01
3.01          	bottomWall	2.396752e-01	2.396752e-01	2.396752e-01
3.02          	bottomWall	2.367458e-01	2.367458e-01	2.367458e-01
3.03          	bottomWall	2.337568e-01	2.337568e-01	2.337568e-01
3.04          	bottomWall	2.307069e-01	2.307069e-01	2.307069e-01
3.05          	bottomWall	2.275946e-01	2.275946e-01	2.275946e-01
3.06          	bottomWall	2.244181e-01	2.244181e-01	2.244181e-01
3.07          	bottomWall	2.211756e-01	2.211756e-01	2.211756e-01
3.08          	bottomWall	2.178652e-01	2.178652e-01	2.178652e-01
3.09          	bottomWall	2.144846e-01	2.144846e-01	2.144846e-01
3.1           	bottomWall	2.110315e-01	2.110315e-01	2.110315e-01
3.11          	bottomWall	2.075033e-01	2.075033e-01	2.075033e-01
3.12          	bottomWall	2.038971e-01	2.038971e-01	2.038971e-01
3.13          	bottomWall	2.002097e-01	2.002097e-01	2.002097e-01
3.14          	bottomWall	1.964374e-01	1.964374e-01	1.964374e-01
3.15          	bottomWall	1.925764e-01	1.925764e-01	1.925764e-01
3.16          	bottomWall	1.886221e-01	1.886221e-01	1.886221e-01
3.17          	bottomWall	1.845697e-01	1.845697e-01	1.845697e-01
3.18          	bottomWall	1.804134e-01	1.804134e-01	1.804134e-01
3.19          	bottomWall	1.761470e-01	1.761470e-01	1.761470e-01
3.2           	bottomWall	1.717631e-01	1.717631e-01	1.717631e-01
3.21          	bottomWall	1.672535e-01	1.672535e-01	1.672535e-01
3.22          	bottomWall	1.626085e-01	1.626085e-01	1.626085e-01
3.23          	bottomWall	1.578171e-01	1.578171e-01	1.578171e-01
3.24          	bottomWall	1.528661e-01	1.528661e-01	1.528661e-01
3.25          	bottomWall	1.477404e-01	1.477404e-01	1.477404e-01
3.26          	bottomWall	1.424215e-01	1.424215e-01	1.424215e-01
3.27          	bottomWall	1.368875e-01	1.368875e-01	1.368875e-01
3.28          	bottomWall	1.311112e-01	1.311112e-01	1.311112e-01
3.29          	bottomWall	1.250591e-01	1.250591e-01	1.250591e-01
3.3           	bottomWall	1.186889e-01	1.186889e-01	1.186889e-01
3.31          	bottomWall	1.119456e-01	1.119456e-01	1.119456e-01
3.32          	bottomWall	1.047559e-01	1.047559e-01	1.047559e-01
3.33          	bottomWall	9.701870e-02	9.701870e-02	9.701870e-02
3.34          	bottomWall	8.858756e-02	8.858756e-02	8.858756e-02
3.35          	bottomWall	7.923653e-02	7.923653e-02	7.923653e-02
3.36          	bottomWall	6.858269e-02	6.858269e-02	6.858269e-02
3.37          	bottomWall	5.587259e-02	5.587259e-02	5.587259e-02
3.38          	bottomWall	3.912488e-02	3.912488e-02	3.912488e-02
3.39          	bottomWall	8.523729e-03	8.523729e-03	8.523729e-03
3.4           	bottomWall	4.116263e-02	4.116263e-02	4.116263e-02
3.41          	bottomWall	5.782722e-02	5.782722e-02	5.782722e-02
3.42          	bottomWall	7.053642e-02	7.053642e-02	7.053642e-02
3.43          	bottomWall	8.111761e-02	8.111761e-02	8.111761e-02
3.44          	bottomWall	9.032004e-02	9.032004e-02	9.032004e-02
3.45          	bottomWall	9.853688e-02	9.853688e-02	9.853688e-02
3.46          	bottomWall	1.060048e-01	1.060048e-01	1.060048e-01
3.47          	bottomWall	1.128794e-01	1.128794e-01	1.128794e-01
3.48          	bottomWall	1.192694e-01	1.192694e-01	1.192694e-01
3.49          	bottomWall	1.252545e-01	1.252545e-01	1.252545e-01
3.5           	bottomWall	1.308951e-01	1.308951e-01	1.308951e-01
3.51          	bottomWall	1.362385e-01	1.362385e-01	1.362385e-01
3.52          	bottomWall	1.413223e-01	1.413223e-01	1.413223e-01
3.53          	bottomWall	1.461775e-01	1.461775e-01	1.461775e-01
3.54          	bottomWall	1.508297e-01	1.508297e-01	1.508297e-01
3.55          	bottomWall	1.553004e-01	1.553004e-01	1.553004e-01
3.56          	bottomWall	1.596082e-01	1.596082e-01	1.596082e-01
3.57          	bottomWall	1.637688e-01	1.637688e-01	1.637688e-01
3.58          	bottomWall	1.677963e-01	1.677963e-01	1.677963e-01
3.59          	bottomWall	1.717028e-01	1.717028e-01	1.717028e-01
3.6           	bottomWall	1.754992e-01	1.754992e-01	1.754992e-01
3.61          	bottomWall	1.791950e-01	1.791950e-01	1.791950e-01
3.62          	bottomWall	1.827989e-01	1.827989e-01	1.827989e-01
3.63          	bottomWall	1.863188e-01	1.863188e-01	1.863188e-01
3.64          	bottomWall	1.897616e-01	1.897616e-01	1.897616e-01
3.65          	bottomWall	1.931339e-01	1.931339e-01	1.931339e-01
3.66          	bottomWall	1.964414e-01	1.964414e-01	1.964414e-01
3.67          	bottomWall	1.996894e-01	1.996894e-01	1.996894e-01
3.68          	bottomWall	2.028828e-01	2.028828e-01	2.028828e-01
3.69          	bottomWall	2.060261e-01	2.060261e-01	2.060261e-01
3.7           	bottomWall	2.091234e-01	2.091234e-01	2.091234e-01
3.71          	bottomWall	2.121783e-01	2.121783e-01	2.121783e-01
3.72          	bottomWall	2.151942e-01	2.151942e-01	2.151942e-01
3.73          	bottomWall	2.181743e-01	2.181743e-01	2.181743e-01
3.74          	bottomWall	2.211214e-01	2.211214e-01	2.211214e-01
3.75          	bottomWall	2.240380e-01	2.240380e-01	2.240380e-01
3.76          	bottomWall	2.269265e-01	2.269265e-01	2.269265e-01
3.77          	bottomWall	2.297890e-01	2.297890e-01	2.297890e-01
3.78          	bottomWall	2.326274e-01	2.326274e-01	2.326274e-01
3.79          	bottomWall	2.354435e-01	2.354435e-01	2.354435e-01
3.8           	bottomWall	2.382387e-01	2.382387e-01	2.382387e-01
3.81          	bottomWall	2.410144e-01	2.410144e-01	2.410144e-01
3.82          	bottomWall	2.437719e-01	2.437719e-01	2.437719e-01
3.83          	bottomWall	2.465122e-01	2.465122e-01	2.465122e-01
3.84          	bottomWall	2.492362e-01	2.492362e-01	2.492362e-01
3.85          	bottomWall	2.519447e-01	2.519447e-01	2.519447e-01
3.86          	bottomWall	2.546384e-01	2.546384e-01	2.546384e-01
3.87          	bottomWall	2.573180e-01	2.573180e-01	2.573180e-01
3.88          	bottomWall	2.599838e-01	2.599838e-01	2.599838e-01
3.89          	bottomWall	2.626364e-01	2.626364e-01	2.626364e-01
3.9           	bottomWall	2.652759e-01	2.652759e-01	2.652759e-01
3.91          	bottomWall	2.679028e-01	2.679028e-01	2.679028e-01
3.92          	bottomWall	2.705170e-01	2.705170e-01	2.705170e-01
3.93          	bottomWall	2.731188e-01	2.731188e-01	2.731188e-01
3.94          	bottomWall	2.757081e-01	2.757081e-01	2.757081e-01
3.95          	bottomWall	2.782851e-01	2.782851e-01	2.782851e-01
3.96          	bottomWall	2.808496e-01	2.808496e-01	2.808496e-01
3.97          	bottomWall	2.834016e-01	2.834016e-01	2.834016e-01
3.98          	bottomWall	2.859410e-01	2.859410e-01	2.859410e-01
3.99          	bottomWall	2.884676e-01	2.884676e-01	2.884676e-01
4             	bottomWall	2.909813e-01	2.909813e-01	2.909813e-01
4.01          	bottomWall	2.934818e-01	2.934818e-01	2.934818e-01
4.02          	bottomWall	2.959689e-01	2.959689e-01	2.959689e-01
4.03          	bottomWall	2.984424e-01	2.984424e-01	2.984424e-01
4.04          	bottomWall	3.009021e-01	3.009021e-01	3.009021e-01
4.05          	bottomWall	3.033475e-01	3.033475e-01	3.033475e-01
4.06          	bottomWall	3.057786e-01	3.057786e-01	3.057786e-01
4.07          	bottomWall	3.081949e-01	3.081949e-01	3.081949e-01
4.08          	bottomWall	3.105961e-01	3.105961e-01	3.105961e-01
4.09          	bottomWall	3.129820e-01	3.129820e-01	3.129820e-01
4.1           	bottomWall	3.153521e-01	3.153521e-01	3.153521e-01
4.11          	bottomWall	3.177063e-01	3.177063e-01	3.177063e-01
4.12          	bottomWall	3.200441e-01	3.200441e-01	3.200441e-01
4.13          	bottomWall	3.223653e-01	3.223653e-01	3.223653e-01
4.14          	bottomWall	3.246694e-01	3.246694e-01	3.246694e-01
4.15          	bottomWall	3.269561e-01	3.269561e-01	3.269561e-01
4.16          	bottomWall	3.292252e-01	3.292252e-01	3.292252e-01
4.17          	bottomWall	3.314762e-01	3.314762e-01	3.314762e-01
4.18          	bottomWall	3.337089e-01	3.337089e-01	3.337089e-01
4.19          	bottomWall	3.359229e-01	3.359229e-01	3.359229e-01
4.2           	bottomWall	3.381178e-01	3.381178e-01	3.381178e-01
4.21          	bottomWall	3.402933e-01	3.402933e-01	3.402933e-01
4.22          	bottomWall	3.424491e-01	3.424491e-01	3.424491e-01
4.23          	bottomWall	3.445849e-01	3.445849e-01	3.445849e-01
4.24          	bottomWall	3.467002e-01	3.467002e-01	3.467002e-01
4.25          	bottomWall	3.487949e-01	3.487949e-01	3.487949e-01
4.26          	bottomWall	3.508686e-01	3.508686e-01	3.508686e-01
4.27          	bottomWall	3.529209e-01	3.529209e-01	3.529209e-01
4.28          	bottomWall	3.549516e-01	3.549516e-01	3.549516e-01
4.29          	bottomWall	3.569603e-01	3.569603e-01	3.569603e-01
4.3           	bottomWall	3.589466e-01	3.589466e-01	3.589466e-01
4.31          	bottomWall	3.609104e-01	3.609104e-01	3.609104e-01
4.32          	bottomWall	3.628514e-01	3.628514e-01	3.628514e-01
4.33          	bottomWall	3.647691e-01	3.647691e-01	3.647691e-01
4.34          	bottomWall	3.666633e-01	3.666633e-01	3.666633e-01
4.35          	bottomWall	3.685337e-01	3.685337e-01	3.685337e-01
4.36          	bottomWall	3.703800e-01	3.703800e-01	3.703800e-01
4.37          	bottomWall	3.722020e-01	3.722020e-01	3.722020e-01
4.38          	bottomWall	3.739993e-01	3.739993e-01	3.739993e-01
4.39          	bottomWall	3.757717e-01	3.757717e-01	3.757717e-01
4.4           	bottomWall	3.775188e-01	3.775188e-01	3.775188e-01
4.41          	bottomWall	3.792405e-01	3.792405e-01	3.792405e-01
4.42          	bottomWall	3.809364e-01	3.809364e-01	3.809364e-01
4.43          	bottomWall	3.826063e-01	3.826063e-01	3.826063e-01
4.44          	bottomWall	3.842500e-01	3.842500e-01	3.842500e-01
4.45          	bottomWall	3.858670e-01	3.858670e-01	3.858670e-01
4.46          	bottomWall	3.874573e-01	3.874573e-01	3.874573e-01
4.47          	bottomWall	3.890205e-01	3.890205e-01	3.890205e-01
4.48          	bottomWall	3.905564e-01	3.905564e-01	3.905564e-01
4.49          	bottomWall	3.920647e-01	3.920647e-01	3.920647e-01
4.5           	bottomWall	3.935453e-01	3.935453e-01	3.935453e-01
4.51          	bottomWall	3.949978e-01	3.949978e-01	3.949978e-01
4.52          	bottomWall	3.964220e-01	3.964220e-01	3.964220e-01
4.53          	bottomWall	3.978177e-01	3.978177e-01	3.978177e-01
4.54          	bottomWall	3.991846e-01	3.991846e-01	3.991846e-01
4.55          	bottomWall	4.005226e-01	4.005226e-01	4.005226e-01
4.56          	bottomWall	4.018314e-01	4.018314e-01	4.018314e-01
4.57          	bottomWall	4.031107e-01	4.031107e-01	4.031107e-01
4.58          	bottomWall	4.043604e-01	4.043604e-01	4.043604e-01
4.59          	bottomWall	4.055802e-01	4.055802e-01	4.055802e-01
4.6           	bottomWall	4.067699e-01	4.067699e-01	4.067699e-01