# y+ ()       
# Time        	patch         	min           	max           	average       
0.01          	bottomWall	2.762366e-01	2.762366e-01	2.762366e-01
0.02          	bottomWall	2.323423e-01	2.323423e-01	2.323423e-01
0.03          	bottomWall	2.546486e-01	2.546486e-01	2.546486e-01
0.04          	bottomWall	2.620583e-01	2.620583e-01	2.620583e-01
0.05          	bottomWall	2.643252e-01	2.643252e-01	2.643252e-01
0.06          	bottomWall	2.650981e-01	2.650981e-01	2.650981e-01
0.07          	bottomWall	2.650167e-01	2.650167e-01	2.650167e-01
0.08          	bottomWall	2.644023e-01	2.644023e-01	2.644023e-01
0.09          	bottomWall	2.634403e-01	2.634403e-01	2.634403e-01
0.1           	bottomWall	2.622450e-01	2.622450e-01	2.622450e-01
0.11          	bottomWall	2.608897e-01	2.608897e-01	2.608897e-01
0.12          	bottomWall	2.594222e-01	2.594222e-01	2.594222e-01
0.13          	bottomWall	2.578745e-01	2.578745e-01	2.578745e-01
0.14          	bottomWall	2.562679e-01	2.562679e-01	2.562679e-01
0.15          	bottomWall	2.546167e-01	2.546167e-01	2.546167e-01
0.16          	bottomWall	2.529304e-01	2.529304e-01	2.529304e-01
0.17          	bottomWall	2.512152e-01	2.512152e-01	2.512152e-01
0.18          	bottomWall	2.494752e-01	2.494752e-01	2.494752e-01
0.19          	bottomWall	2.477127e-01	2.477127e-01	2.477127e-01
0.2           	bottomWall	2.459289e-01	2.459289e-01	2.459289e-01
0.21          	bottomWall	2.441244e-01	2.441244e-01	2.441244e-01
0.22          	bottomWall	2.422991e-01	2.422991e-01	2.422991e-01
0.23          	bottomWall	2.404526e-01	2.404526e-01	2.404526e-01
0.24          	bottomWall	2.385842e-01	2.385842e-01	2.385842e-01
0.25          	bottomWall	2.366932e-01	2.366932e-01	2.366932e-01
0.26          	bottomWall	2.347785e-01	2.347785e-01	2.347785e-01
0.27          	bottomWall	2.328391e-01	2.328391e-01	2.328391e-01
0.28          	bottomWall	2.308741e-01	2.308741e-01	2.308741e-01
0.29          	bottomWall	2.288822e-01	2.288822e-01	2.288822e-01
0.3           	bottomWall	2.268626e-01	2.268626e-01	2.268626e-01
0.31          	bottomWall	2.248140e-01	2.248140e-01	2.248140e-01
0.32          	bottomWall	2.227355e-01	2.227355e-01	2.227355e-01
0.33          	bottomWall	2.206260e-01	2.206260e-01	2.206260e-01
0.34          	bottomWall	2.184846e-01	2.184846e-01	2.184846e-01
0.35          	bottomWall	2.163102e-01	2.163102e-01	2.163102e-01
0.36          	bottomWall	2.141018e-01	2.141018e-01	2.141018e-01
0.37          	bottomWall	2.118586e-01	2.118586e-01	2.118586e-01
0.38          	bottomWall	2.095796e-01	2.095796e-01	2.095796e-01
0.39          	bottomWall	2.072637e-01	2.072637e-01	2.072637e-01
0.4           	bottomWall	2.049102e-01	2.049102e-01	2.049102e-01
0.41          	bottomWall	2.025180e-01	2.025180e-01	2.025180e-01
0.42          	bottomWall	2.000862e-01	2.000862e-01	2.000862e-01
0.43          	bottomWall	1.976138e-01	1.976138e-01	1.976138e-01
0.44          	bottomWall	1.950999e-01	1.950999e-01	1.950999e-01
0.45          	bottomWall	1.925434e-01	1.925434e-01	1.925434e-01
0.46          	bottomWall	1.899434e-01	1.899434e-01	1.899434e-01
0.47          	bottomWall	1.872988e-01	1.872988e-01	1.872988e-01
0.48          	bottomWall	1.846083e-01	1.846083e-01	1.846083e-01
0.49          	bottomWall	1.818710e-01	1.818710e-01	1.818710e-01
0.5           	bottomWall	1.790855e-01	1.790855e-01	1.790855e-01
0.51          	bottomWall	1.762504e-01	1.762504e-01	1.762504e-01
0.52          	bottomWall	1.733645e-01	1.733645e-01	1.733645e-01
0.53          	bottomWall	1.704261e-01	1.704261e-01	1.704261e-01
0.54          	bottomWall	1.674336e-01	1.674336e-01	1.674336e-01
0.55          	bottomWall	1.643852e-01	1.643852e-01	1.643852e-01
0.56          	bottomWall	1.612791e-01	1.612791e-01	1.612791e-01
0.57          	bottomWall	1.581129e-01	1.581129e-01	1.581129e-01
0.58          	bottomWall	1.548844e-01	1.548844e-01	1.548844e-01
0.59          	bottomWall	1.515909e-01	1.515909e-01	1.515909e-01
0.6           	bottomWall	1.482294e-01	1.482294e-01	1.482294e-01
0.61          	bottomWall	1.447967e-01	1.447967e-01	1.447967e-01
0.62          	bottomWall	1.412890e-01	1.412890e-01	1.412890e-01
0.63          	bottomWall	1.377022e-01	1.377022e-01	1.377022e-01
0.64          	bottomWall	1.340313e-01	1.340313e-01	1.340313e-01
0.65          	bottomWall	1.302709e-01	1.302709e-01	1.302709e-01
0.66          	bottomWall	1.264146e-01	1.264146e-01	1.264146e-01
0.67          	bottomWall	1.224548e-01	1.224548e-01	1.224548e-01
0.68          	bottomWall	1.183830e-01	1.183830e-01	1.183830e-01
0.69          	bottomWall	1.141886e-01	1.141886e-01	1.141886e-01
0.7           	bottomWall	1.098593e-01	1.098593e-01	1.098593e-01
0.71          	bottomWall	1.053800e-01	1.053800e-01	1.053800e-01
0.72          	bottomWall	1.007325e-01	1.007325e-01	1.007325e-01
0.73          	bottomWall	9.589369e-02	9.589369e-02	9.589369e-02
0.74          	bottomWall	9.083450e-02	9.083450e-02	9.083450e-02
0.75          	bottomWall	8.551719e-02	8.551719e-02	8.551719e-02
0.76          	bottomWall	7.989139e-02	7.989139e-02	7.989139e-02
0.77          	bottomWall	7.388761e-02	7.388761e-02	7.388761e-02
0.78          	bottomWall	6.740552e-02	6.740552e-02	6.740552e-02
0.79          	bottomWall	6.029104e-02	6.029104e-02	6.029104e-02
0.8           	bottomWall	5.228577e-02	5.228577e-02	5.228577e-02
0.81          	bottomWall	4.289115e-02	4.289115e-02	4.289115e-02
0.82          	bottomWall	3.085660e-02	3.085660e-02	3.085660e-02
0.83          	bottomWall	8.394666e-03	8.394666e-03	8.394666e-03
0.84          	bottomWall	2.839906e-02	2.839906e-02	2.839906e-02
0.85          	bottomWall	4.101189e-02	4.101189e-02	4.101189e-02
0.86          	bottomWall	5.039832e-02	5.039832e-02	5.039832e-02
0.87          	bottomWall	5.815604e-02	5.815604e-02	5.815604e-02
0.88          	bottomWall	6.488106e-02	6.488106e-02	6.488106e-02
0.89          	bottomWall	7.087489e-02	7.087489e-02	7.087489e-02
0.9           	bottomWall	7.631564e-02	7.631564e-02	7.631564e-02
0.91          	bottomWall	8.131934e-02	8.131934e-02	8.131934e-02
0.92          	bottomWall	8.596699e-02	8.596699e-02	8.596699e-02
0.93          	bottomWall	9.031805e-02	9.031805e-02	9.031805e-02
0.94          	bottomWall	9.441801e-02	9.441801e-02	9.441801e-02
0.95          	bottomWall	9.830276e-02	9.830276e-02	9.830276e-02
0.96          	bottomWall	1.020014e-01	1.020014e-01	1.020014e-01
0.97          	bottomWall	1.055380e-01	1.055380e-01	1.055380e-01
0.98          	bottomWall	1.089330e-01	1.089330e-01	1.089330e-01
0.99          	bottomWall	1.122037e-01	1.122037e-01	1.122037e-01
1             	bottomWall	1.153653e-01	1.153653e-01	1.153653e-01
1.01          	bottomWall	1.184310e-01	1.184310e-01	1.184310e-01
1.02          	bottomWall	1.214125e-01	1.214125e-01	1.214125e-01
1.03          	bottomWall	1.243200e-01	1.243200e-01	1.243200e-01
1.04          	bottomWall	1.271628e-01	1.271628e-01	1.271628e-01
1.05          	bottomWall	1.299490e-01	1.299490e-01	1.299490e-01
1.06          	bottomWall	1.326859e-01	1.326859e-01	1.326859e-01
1.07          	bottomWall	1.353801e-01	1.353801e-01	1.353801e-01
1.08          	bottomWall	1.380372e-01	1.380372e-01	1.380372e-01
1.09          	bottomWall	1.406624e-01	1.406624e-01	1.406624e-01
1.1           	bottomWall	1.432601e-01	1.432601e-01	1.432601e-01
1.11          	bottomWall	1.458342e-01	1.458342e-01	1.458342e-01
1.12          	bottomWall	1.483882e-01	1.483882e-01	1.483882e-01
1.13          	bottomWall	1.509250e-01	1.509250e-01	1.509250e-01
1.14          	bottomWall	1.534471e-01	1.534471e-01	1.534471e-01
1.15          	bottomWall	1.559566e-01	1.559566e-01	1.559566e-01
1.16          	bottomWall	1.584554e-01	1.584554e-01	1.584554e-01
1.17          	bottomWall	1.609449e-01	1.609449e-01	1.609449e-01
1.18          	bottomWall	1.634263e-01	1.634263e-01	1.634263e-01
1.19          	bottomWall	1.659005e-01	1.659005e-01	1.659005e-01
1.2           	bottomWall	1.683683e-01	1.683683e-01	1.683683e-01
1.21          	bottomWall	1.708301e-01	1.708301e-01	1.708301e-01
1.22          	bottomWall	1.732865e-01	1.732865e-01	1.732865e-01
1.23          	bottomWall	1.757375e-01	1.757375e-01	1.757375e-01
1.24          	bottomWall	1.781834e-01	1.781834e-01	1.781834e-01
1.25          	bottomWall	1.806240e-01	1.806240e-01	1.806240e-01
1.26          	bottomWall	1.830593e-01	1.830593e-01	1.830593e-01
1.27          	bottomWall	1.854892e-01	1.854892e-01	1.854892e-01
1.28          	bottomWall	1.879133e-01	1.879133e-01	1.879133e-01
1.29          	bottomWall	1.903313e-01	1.903313e-01	1.903313e-01
1.3           	bottomWall	1.927431e-01	1.927431e-01	1.927431e-01
1.31          	bottomWall	1.951481e-01	1.951481e-01	1.951481e-01
1.32          	bottomWall	1.975459e-01	1.975459e-01	1.975459e-01
1.33          	bottomWall	1.999362e-01	1.999362e-01	1.999362e-01
1.34          	bottomWall	2.023186e-01	2.023186e-01	2.023186e-01
1.35          	bottomWall	2.046924e-01	2.046924e-01	2.046924e-01
1.36          	bottomWall	2.070574e-01	2.070574e-01	2.070574e-01
1.37          	bottomWall	2.094130e-01	2.094130e-01	2.094130e-01
1.38          	bottomWall	2.117588e-01	2.117588e-01	2.117588e-01
1.39          	bottomWall	2.140943e-01	2.140943e-01	2.140943e-01
1.4           	bottomWall	2.164190e-01	2.164190e-01	2.164190e-01
1.41          	bottomWall	2.187324e-01	2.187324e-01	2.187324e-01
1.42          	bottomWall	2.210342e-01	2.210342e-01	2.210342e-01
1.43          	bottomWall	2.233238e-01	2.233238e-01	2.233238e-01
1.44          	bottomWall	2.256008e-01	2.256008e-01	2.256008e-01
1.45          	bottomWall	2.278647e-01	2.278647e-01	2.278647e-01
1.46          	bottomWall	2.301151e-01	2.301151e-01	2.301151e-01
1.47          	bottomWall	2.323516e-01	2.323516e-01	2.323516e-01
1.48          	bottomWall	2.345737e-01	2.345737e-01	2.345737e-01
1.49          	bottomWall	2.367811e-01	2.367811e-01	2.367811e-01
1.5           	bottomWall	2.389732e-01	2.389732e-01	2.389732e-01
1.51          	bottomWall	2.411498e-01	2.411498e-01	2.411498e-01
1.52          	bottomWall	2.433104e-01	2.433104e-01	2.433104e-01
1.53          	bottomWall	2.454545e-01	2.454545e-01	2.454545e-01
1.54          	bottomWall	2.475819e-01	2.475819e-01	2.475819e-01
1.55          	bottomWall	2.496922e-01	2.496922e-01	2.496922e-01
1.56          	bottomWall	2.517849e-01	2.517849e-01	2.517849e-01
1.57          	bottomWall	2.538597e-01	2.538597e-01	2.538597e-01
1.58          	bottomWall	2.559163e-01	2.559163e-01	2.559163e-01
1.59          	bottomWall	2.579543e-01	2.579543e-01	2.579543e-01
1.6           	bottomWall	2.599733e-01	2.599733e-01	2.599733e-01
1.61          	bottomWall	2.619730e-01	2.619730e-01	2.619730e-01
1.62          	bottomWall	2.639531e-01	2.639531e-01	2.639531e-01
1.63          	bottomWall	2.659132e-01	2.659132e-01	2.659132e-01
1.64          	bottomWall	2.678530e-01	2.678530e-01	2.678530e-01
1.65          	bottomWall	2.697722e-01	2.697722e-01	2.697722e-01
1.66          	bottomWall	2.716705e-01	2.716705e-01	2.716705e-01
1.67          	bottomWall	2.735475e-01	2.735475e-01	2.735475e-01
1.68          	bottomWall	2.754030e-01	2.754030e-01	2.754030e-01
1.69          	bottomWall	2.772366e-01	2.772366e-01	2.772366e-01
1.7           	bottomWall	2.790480e-01	2.790480e-01	2.790480e-01
1.71          	bottomWall	2.808369e-01	2.808369e-01	2.808369e-01
1.72          	bottomWall	2.826031e-01	2.826031e-01	2.826031e-01
1.73          	bottomWall	2.843463e-01	2.843463e-01	2.843463e-01
1.74          	bottomWall	2.860661e-01	2.860661e-01	2.860661e-01
1.75          	bottomWall	2.877624e-01	2.877624e-01	2.877624e-01
1.76          	bottomWall	2.894347e-01	2.894347e-01	2.894347e-01
1.77          	bottomWall	2.910829e-01	2.910829e-01	2.910829e-01
1.78          	bottomWall	2.927066e-01	2.927066e-01	2.927066e-01
1.79          	bottomWall	2.943057e-01	2.943057e-01	2.943057e-01
1.8           	bottomWall	2.958798e-01	2.958798e-01	2.958798e-01
1.81          	bottomWall	2.974286e-01	2.974286e-01	2.974286e-01
1.82          	bottomWall	2.989520e-01	2.989520e-01	2.989520e-01
1.83          	bottomWall	3.004496e-01	3.004496e-01	3.004496e-01
1.84          	bottomWall	3.019212e-01	3.019212e-01	3.019212e-01
1.85          	bottomWall	3.033666e-01	3.033666e-01	3.033666e-01
1.86          	bottomWall	3.047856e-01	3.047856e-01	3.047856e-01
1.87          	bottomWall	3.061777e-01	3.061777e-01	3.061777e-01
1.88          	bottomWall	3.075430e-01	3.075430e-01	3.075430e-01
1.89          	bottomWall	3.088810e-01	3.088810e-01	3.088810e-01
1.9           	bottomWall	3.101915e-01	3.101915e-01	3.101915e-01
1.91          	bottomWall	3.114744e-01	3.114744e-01	3.114744e-01
1.92          	bottomWall	3.127294e-01	3.127294e-01	3.127294e-01
1.93          	bottomWall	3.139563e-01	3.139563e-01	3.139563e-01
1.94          	bottomWall	3.151548e-01	3.151548e-01	3.151548e-01
1.95          	bottomWall	3.163247e-01	3.163247e-01	3.163247e-01
1.96          	bottomWall	3.174658e-01	3.174658e-01	3.174658e-01
1.97          	bottomWall	3.185780e-01	3.185780e-01	3.185780e-01
1.98          	bottomWall	3.196609e-01	3.196609e-01	3.196609e-01
1.99          	bottomWall	3.207143e-01	3.207143e-01	3.207143e-01
2             	bottomWall	3.217382e-01	3.217382e-01	3.217382e-01
2.01          	bottomWall	3.227322e-01	3.227322e-01	3.227322e-01
2.02          	bottomWall	3.236961e-01	3.236961e-01	3.236961e-01
2.03          	bottomWall	3.246298e-01	3.246298e-01	3.246298e-01
2.04          	bottomWall	3.255330e-01	3.255330e-01	3.255330e-01
2.05          	bottomWall	3.264056e-01	3.264056e-01	3.264056e-01
2.06          	bottomWall	3.272474e-01	3.272474e-01	3.272474e-01
2.07          	bottomWall	3.280581e-01	3.280581e-01	3.280581e-01
2.08          	bottomWall	3.288377e-01	3.288377e-01	3.288377e-01
2.09          	bottomWall	3.295858e-01	3.295858e-01	3.295858e-01
2.1           	bottomWall	3.303024e-01	3.303024e-01	3.303024e-01
2.11          	bottomWall	3.309872e-01	3.309872e-01	3.309872e-01
2.12          	bottomWall	3.316401e-01	3.316401e-01	3.316401e-01
2.13          	bottomWall	3.322608e-01	3.322608e-01	3.322608e-01
2.14          	bottomWall	3.328493e-01	3.328493e-01	3.328493e-01
2.15          	bottomWall	3.334054e-01	3.334054e-01	3.334054e-01
2.16          	bottomWall	3.339288e-01	3.339288e-01	3.339288e-01
2.17          	bottomWall	3.344194e-01	3.344194e-01	3.344194e-01
2.18          	bottomWall	3.348771e-01	3.348771e-01	3.348771e-01
2.19          	bottomWall	3.353017e-01	3.353017e-01	3.353017e-01
2.2           	bottomWall	3.356931e-01	3.356931e-01	3.356931e-01
2.21          	bottomWall	3.360510e-01	3.360510e-01	3.360510e-01
2.22          	bottomWall	3.363754e-01	3.363754e-01	3.363754e-01
2.23          	bottomWall	3.366660e-01	3.366660e-01	3.366660e-01
2.24          	bottomWall	3.369228e-01	3.369228e-01	3.369228e-01
2.25          	bottomWall	3.371456e-01	3.371456e-01	3.371456e-01
2.26          	bottomWall	3.373343e-01	3.373343e-01	3.373343e-01
2.27          	bottomWall	3.374887e-01	3.374887e-01	3.374887e-01
2.28          	bottomWall	3.376086e-01	3.376086e-01	3.376086e-01
2.29          	bottomWall	3.376941e-01	3.376941e-01	3.376941e-01
2.3           	bottomWall	3.377448e-01	3.377448e-01	3.377448e-01
2.31          	bottomWall	3.377607e-01	3.377607e-01	3.377607e-01
2.32          	bottomWall	3.377417e-01	3.377417e-01	3.377417e-01
2.33          	bottomWall	3.376876e-01	3.376876e-01	3.376876e-01
2.34          	bottomWall	3.375984e-01	3.375984e-01	3.375984e-01
2.35          	bottomWall	3.374739e-01	3.374739e-01	3.374739e-01
2.36          	bottomWall	3.373139e-01	3.373139e-01	3.373139e-01
2.37          	bottomWall	3.371184e-01	3.371184e-01	3.371184e-01
2.38          	bottomWall	3.368872e-01	3.368872e-01	3.368872e-01
2.39          	bottomWall	3.366203e-01	3.366203e-01	3.366203e-01
2.4           	bottomWall	3.363176e-01	3.363176e-01	3.363176e-01
2.41          	bottomWall	3.359788e-01	3.359788e-01	3.359788e-01
2.42          	bottomWall	3.356040e-01	3.356040e-01	3.356040e-01
2.43          	bottomWall	3.351929e-01	3.351929e-01	3.351929e-01
2.44          	bottomWall	3.347456e-01	3.347456e-01	3.347456e-01
2.45          	bottomWall	3.342619e-01	3.342619e-01	3.342619e-01
2.46          	bottomWall	3.337416e-01	3.337416e-01	3.337416e-01
2.47          	bottomWall	3.331847e-01	3.331847e-01	3.331847e-01
2.48          	bottomWall	3.325911e-01	3.325911e-01	3.325911e-01
2.49          	bottomWall	3.319607e-01	3.319607e-01	3.319607e-01
2.5           	bottomWall	3.312932e-01	3.312932e-01	3.312932e-01
2.51          	bottomWall	3.305887e-01	3.305887e-01	3.305887e-01
2.52          	bottomWall	3.298470e-01	3.298470e-01	3.298470e-01
2.53          	bottomWall	3.290680e-01	3.290680e-01	3.290680e-01
2.54          	bottomWall	3.282515e-01	3.282515e-01	3.282515e-01
2.55          	bottomWall	3.273973e-01	3.273973e-01	3.273973e-01
2.56          	bottomWall	3.265054e-01	3.265054e-01	3.265054e-01
2.57          	bottomWall	3.255756e-01	3.255756e-01	3.255756e-01
2.58          	bottomWall	3.246077e-01	3.246077e-01	3.246077e-01
2.59          	bottomWall	3.236015e-01	3.236015e-01	3.236015e-01
2.6           	bottomWall	3.225569e-01	3.225569e-01	3.225569e-01
2.61          	bottomWall	3.214736e-01	3.214736e-01	3.214736e-01
2.62          	bottomWall	3.203515e-01	3.203515e-01	3.203515e-01
2.63          	bottomWall	3.191903e-01	3.191903e-01	3.191903e-01
2.64          	bottomWall	3.179897e-01	3.179897e-01	3.179897e-01
2.65          	bottomWall	3.167497e-01	3.167497e-01	3.167497e-01
2.66          	bottomWall	3.154697e-01	3.154697e-01	3.154697e-01
2.67          	bottomWall	3.141498e-01	3.141498e-01	3.141498e-01
2.68          	bottomWall	3.127894e-01	3.127894e-01	3.127894e-01
2.69          	bottomWall	3.113884e-01	3.113884e-01	3.113884e-01
2.7           	bottomWall	3.099465e-01	3.099465e-01	3.099465e-01
2.71          	bottomWall	3.084633e-01	3.084633e-01	3.084633e-01
2.72          	bottomWall	3.069385e-01	3.069385e-01	3.069385e-01
2.73          	bottomWall	3.053718e-01	3.053718e-01	3.053718e-01
2.74          	bottomWall	3.037629e-01	3.037629e-01	3.037629e-01
2.75          	bottomWall	3.021113e-01	3.021113e-01	3.021113e-01
2.76          	bottomWall	3.004167e-01	3.004167e-01	3.004167e-01
2.77          	bottomWall	2.986788e-01	2.986788e-01	2.986788e-01
2.78          	bottomWall	2.968971e-01	2.968971e-01	2.968971e-01
2.79          	bottomWall	2.950712e-01	2.950712e-01	2.950712e-01
2.8           	bottomWall	2.932008e-01	2.932008e-01	2.932008e-01
2.81          	bottomWall	2.912853e-01	2.912853e-01	2.912853e-01
2.82          	bottomWall	2.893244e-01	2.893244e-01	2.893244e-01
2.83          	bottomWall	2.873175e-01	2.873175e-01	2.873175e-01
2.84          	bottomWall	2.852643e-01	2.852643e-01	2.852643e-01
2.85          	bottomWall	2.831641e-01	2.831641e-01	2.831641e-01
2.86          	bottomWall	2.810166e-01	2.810166e-01	2.810166e-01
2.87          	bottomWall	2.788210e-01	2.788210e-01	2.788210e-01
2.88          	bottomWall	2.765770e-01	2.765770e-01	2.765770e-01
2.89          	bottomWall	2.742838e-01	2.742838e-01	2.742838e-01
2.9           	bottomWall	2.719409e-01	2.719409e-01	2.719409e-01
2.91          	bottomWall	2.695476e-01	2.695476e-01	2.695476e-01
2.92          	bottomWall	2.671033e-01	2.671033e-01	2.671033e-01
2.93          	bottomWall	2.646071e-01	2.646071e-01	2.646071e-01
2.94          	bottomWall	2.620584e-01	2.620584e-01	2.620584e-01
2.95          	bottomWall	2.594564e-01	2.594564e-01	2.594564e-01
2.96          	bottomWall	2.568001e-01	2.568001e-01	2.568001e-01
2.97          	bottomWall	2.540886e-01	2.540886e-01	2.540886e-01
2.98          	bottomWall	2.513211e-01	2.513211e-01	2.513211e-01
2.99          	bottomWall	2.484963e-01	2.484963e-01	2.484963e-01
3             	bottomWall	2.456133e-01	2.456133e-01	2.456133e-01
3.01          	bottomWall	2.426708e-01	2.426708e-01	2.426708e-01
3.02          	bottomWall	2.396675e-01	2.396675e-01	2.396675e-01
3.03          	bottomWall	2.366020e-01	2.366020e-01	2.366020e-01
3.04          	bottomWall	2.334727e-01	2.334727e-01	2.334727e-01
3.05          	bottomWall	2.302781e-01	2.302781e-01	2.302781e-01
3.06          	bottomWall	2.270163e-01	2.270163e-01	2.270163e-01
3.07          	bottomWall	2.236855e-01	2.236855e-01	2.236855e-01
3.08          	bottomWall	2.202834e-01	2.202834e-01	2.202834e-01
3.09          	bottomWall	2.168077e-01	2.168077e-01	2.168077e-01
3.1           	bottomWall	2.132559e-01	2.132559e-01	2.132559e-01
3.11          	bottomWall	2.096252e-01	2.096252e-01	2.096252e-01
3.12          	bottomWall	2.059124e-01	2.059124e-01	2.059124e-01
3.13          	bottomWall	2.021141e-01	2.021141e-01	2.021141e-01
3.14          	bottomWall	1.982264e-01	1.982264e-01	1.982264e-01
3.15          	bottomWall	1.942450e-01	1.942450e-01	1.942450e-01
3.16          	bottomWall	1.901653e-01	1.901653e-01	1.901653e-01
3.17          	bottomWall	1.859817e-01	1.859817e-01	1.859817e-01
3.18          	bottomWall	1.816881e-01	1.816881e-01	1.816881e-01
3.19          	bottomWall	1.772777e-01	1.772777e-01	1.772777e-01
3.2           	bottomWall	1.727424e-01	1.727424e-01	1.727424e-01
3.21          	bottomWall	1.680734e-01	1.680734e-01	1.680734e-01
3.22          	bottomWall	1.632599e-01	1.632599e-01	1.632599e-01
3.23          	bottomWall	1.582899e-01	1.582899e-01	1.582899e-01
3.24          	bottomWall	1.531488e-01	1.531488e-01	1.531488e-01
3.25          	bottomWall	1.478198e-01	1.478198e-01	1.478198e-01
3.26          	bottomWall	1.422824e-01	1.422824e-01	1.422824e-01
3.27          	bottomWall	1.365118e-01	1.365118e-01	1.365118e-01
3.28          	bottomWall	1.304776e-01	1.304776e-01	1.304776e-01
3.29          	bottomWall	1.241414e-01	1.241414e-01	1.241414e-01
3.3           	bottomWall	1.174544e-01	1.174544e-01	1.174544e-01
3.31          	bottomWall	1.103524e-01	1.103524e-01	1.103524e-01
3.32          	bottomWall	1.027485e-01	1.027485e-01	1.027485e-01
3.33          	bottomWall	9.451982e-02	9.451982e-02	9.451982e-02
3.34          	bottomWall	8.548351e-02	8.548351e-02	8.548351e-02
3.35          	bottomWall	7.534499e-02	7.534499e-02	7.534499e-02
3.36          	bottomWall	6.357145e-02	6.357145e-02	6.357145e-02
3.37          	bottomWall	4.898377e-02	4.898377e-02	4.898377e-02
3.38          	bottomWall	2.736811e-02	2.736811e-02	2.736811e-02
3.39          	bottomWall	3.021569e-02	3.021569e-02	3.021569e-02
3.4           	bottomWall	5.104242e-02	5.104242e-02	5.104242e-02
3.41          	bottomWall	6.550288e-02	6.550288e-02	6.550288e-02
3.42          	bottomWall	7.718267e-02	7.718267e-02	7.718267e-02
3.43          	bottomWall	8.718517e-02	8.718517e-02	8.718517e-02
3.44          	bottomWall	9.603439e-02	9.603439e-02	9.603439e-02
3.45          	bottomWall	1.040283e-01	1.040283e-01	1.040283e-01
3.46          	bottomWall	1.113557e-01	1.113557e-01	1.113557e-01
3.47          	bottomWall	1.181450e-01	1.181450e-01	1.181450e-01
3.48          	bottomWall	1.244886e-01	1.244886e-01	1.244886e-01
3.49          	bottomWall	1.304553e-01	1.304553e-01	1.304553e-01
3.5           	bottomWall	1.360986e-01	1.360986e-01	1.360986e-01
3.51          	bottomWall	1.414604e-01	1.414604e-01	1.414604e-01
3.52          	bottomWall	1.465750e-01	1.465750e-01	1.465750e-01
3.53          	bottomWall	1.514706e-01	1.514706e-01	1.514706e-01
3.54          	bottomWall	1.561708e-01	1.561708e-01	1.561708e-01
3.55          	bottomWall	1.606956e-01	1.606956e-01	1.606956e-01
3.56          	bottomWall	1.650622e-01	1.650622e-01	1.650622e-01
3.57          	bottomWall	1.692857e-01	1.692857e-01	1.692857e-01
3.58          	bottomWall	1.733791e-01	1.733791e-01	1.733791e-01
3.59          	bottomWall	1.773542e-01	1.773542e-01	1.773542e-01
3.6           	bottomWall	1.812211e-01	1.812211e-01	1.812211e-01
3.61          	bottomWall	1.849892e-01	1.849892e-01	1.849892e-01
3.62          	bottomWall	1.886667e-01	1.886667e-01	1.886667e-01
3.63          	bottomWall	1.922613e-01	1.922613e-01	1.922613e-01
3.64          	bottomWall	1.957797e-01	1.957797e-01	1.957797e-01
3.65          	bottomWall	1.992282e-01	1.992282e-01	1.992282e-01
3.66          	bottomWall	2.026124e-01	2.026124e-01	2.026124e-01
3.67          	bottomWall	2.059375e-01	2.059375e-01	2.059375e-01
3.68          	bottomWall	2.092082e-01	2.092082e-01	2.092082e-01
3.69          	bottomWall	2.124289e-01	2.124289e-01	2.124289e-01
3.7           	bottomWall	2.156036e-01	2.156036e-01	2.156036e-01
3.71          	bottomWall	2.187359e-01	2.187359e-01	2.187359e-01
3.72          	bottomWall	2.218291e-01	2.218291e-01	2.218291e-01
3.73          	bottomWall	2.248862e-01	2.248862e-01	2.248862e-01
3.74          	bottomWall	2.279101e-01	2.279101e-01	2.279101e-01
3.75          	bottomWall	2.309032e-01	2.309032e-01	2.309032e-01
3.76          	bottomWall	2.338678e-01	2.338678e-01	2.338678e-01
3.77          	bottomWall	2.368060e-01	2.368060e-01	2.368060e-01
3.78          	bottomWall	2.397196e-01	2.397196e-01	2.397196e-01
3.79          	bottomWall	2.426104e-01	2.426104e-01	2.426104e-01
3.8           	bottomWall	2.454799e-01	2.454799e-01	2.454799e-01
3.81          	bottomWall	2.483293e-01	2.483293e-01	2.483293e-01
3.82          	bottomWall	2.511599e-01	2.511599e-01	2.511599e-01
3.83          	bottomWall	2.539726e-01	2.539726e-01	2.539726e-01
3.84          	bottomWall	2.567686e-01	2.567686e-01	2.567686e-01
3.85          	bottomWall	2.595484e-01	2.595484e-01	2.595484e-01
3.86          	bottomWall	2.623128e-01	2.623128e-01	2.623128e-01
3.87          	bottomWall	2.650624e-01	2.650624e-01	2.650624e-01
3.88          	bottomWall	2.677977e-01	2.677977e-01	2.677977e-01
3.89          	bottomWall	2.705190e-01	2.705190e-01	2.705190e-01
3.9           	bottomWall	2.732266e-01	2.732266e-01	2.732266e-01
3.91          	bottomWall	2.759209e-01	2.759209e-01	2.759209e-01
3.92          	bottomWall	2.786019e-01	2.786019e-01	2.786019e-01
3.93          	bottomWall	2.812698e-01	2.812698e-01	2.812698e-01
3.94          	bottomWall	2.839247e-01	2.839247e-01	2.839247e-01
3.95          	bottomWall	2.865665e-01	2.865665e-01	2.865665e-01
3.96          	bottomWall	2.891952e-01	2.891952e-01	2.891952e-01
3.97          	bottomWall	2.918108e-01	2.918108e-01	2.918108e-01
3.98          	bottomWall	2.944130e-01	2.944130e-01	2.944130e-01
3.99          	bottomWall	2.970019e-01	2.970019e-01	2.970019e-01
4             	bottomWall	2.995772e-01	2.995772e-01	2.995772e-01
4.01          	bottomWall	3.021387e-01	3.021387e-01	3.021387e-01
4.02          	bottomWall	3.046861e-01	3.046861e-01	3.046861e-01
4.03          	bottomWall	3.072194e-01	3.072194e-01	3.072194e-01
4.04          	bottomWall	3.097381e-01	3.097381e-01	3.097381e-01
4.05          	bottomWall	3.122420e-01	3.122420e-01	3.122420e-01
4.06          	bottomWall	3.147309e-01	3.147309e-01	3.147309e-01
4.07          	bottomWall	3.172044e-01	3.172044e-01	3.172044e-01
4.08          	bottomWall	3.196623e-01	3.196623e-01	3.196623e-01
4.09          	bottomWall	3.221042e-01	3.221042e-01	3.221042e-01
4.1           	bottomWall	3.245298e-01	3.245298e-01	3.245298e-01
4.11          	bottomWall	3.269388e-01	3.269388e-01	3.269388e-01
4.12          	bottomWall	3.293308e-01	3.293308e-01	3.293308e-01
4.13          	bottomWall	3.317055e-01	3.317055e-01	3.317055e-01
4.14          	bottomWall	3.340627e-01	3.340627e-01	3.340627e-01
4.15          	bottomWall	3.364018e-01	3.364018e-01	3.364018e-01
4.16          	bottomWall	3.387227e-01	3.387227e-01	3.387227e-01
4.17          	bottomWall	3.410250e-01	3.410250e-01	3.410250e-01
4.18          	bottomWall	3.433082e-01	3.433082e-01	3.433082e-01
4.19          	bottomWall	3.455722e-01	3.455722e-01	3.455722e-01
4.2           	bottomWall	3.478165e-01	3.478165e-01	3.478165e-01
4.21          	bottomWall	3.500409e-01	3.500409e-01	3.500409e-01
4.22          	bottomWall	3.522449e-01	3.522449e-01	3.522449e-01
4.23          	bottomWall	3.544283e-01	3.544283e-01	3.544283e-01
4.24          	bottomWall	3.565907e-01	3.565907e-01	3.565907e-01
4.25          	bottomWall	3.587318e-01	3.587318e-01	3.587318e-01
4.26          	bottomWall	3.608513e-01	3.608513e-01	3.608513e-01
4.27          	bottomWall	3.629488e-01	3.629488e-01	3.629488e-01
4.28          	bottomWall	3.650241e-01	3.650241e-01	3.650241e-01
4.29          	bottomWall	3.670768e-01	3.670768e-01	3.670768e-01
4.3           	bottomWall	3.691066e-01	3.691066e-01	3.691066e-01
4.31          	bottomWall	3.711132e-01	3.711132e-01	3.711132e-01
4.32          	bottomWall	3.730962e-01	3.730962e-01	3.730962e-01
4.33          	bottomWall	3.750555e-01	3.750555e-01	3.750555e-01
4.34          	bottomWall	3.769907e-01	3.769907e-01	3.769907e-01
4.35          	bottomWall	3.789014e-01	3.789014e-01	3.789014e-01
4.36          	bottomWall	3.807874e-01	3.807874e-01	3.807874e-01
4.37          	bottomWall	3.826485e-01	3.826485e-01	3.826485e-01
4.38          	bottomWall	3.844842e-01	3.844842e-01	3.844842e-01
4.39          	bottomWall	3.862944e-01	3.862944e-01	3.862944e-01
4.4           	bottomWall	3.880787e-01	3.880787e-01	3.880787e-01
4.41          	bottomWall	3.898369e-01	3.898369e-01	3.898369e-01
4.42          	bottomWall	3.915688e-01	3.915688e-01	3.915688e-01
4.43          	bottomWall	3.932739e-01	3.932739e-01	3.932739e-01
4.44          	bottomWall	3.949521e-01	3.949521e-01	3.949521e-01
4.45          	bottomWall	3.966031e-01	3.966031e-01	3.966031e-01
4.46          	bottomWall	3.982267e-01	3.982267e-01	3.982267e-01
4.47          	bottomWall	3.998225e-01	3.998225e-01	3.998225e-01
4.48          	bottomWall	4.013904e-01	4.013904e-01	4.013904e-01
4.49          	bottomWall	4.029300e-01	4.029300e-01	4.029300e-01
4.5           	bottomWall	4.044412e-01	4.044412e-01	4.044412e-01
4.51          	bottomWall	4.059236e-01	4.059236e-01	4.059236e-01
4.52          	bottomWall	4.073771e-01	4.073771e-01	4.073771e-01
4.53          	bottomWall	4.088014e-01	4.088014e-01	4.088014e-01
4.54          	bottomWall	4.101962e-01	4.101962e-01	4.101962e-01
4.55          	bottomWall	4.115614e-01	4.115614e-01	4.115614e-01
4.56          	bottomWall	4.128966e-01	4.128966e-01	4.128966e-01
4.57          	bottomWall	4.142018e-01	4.142018e-01	4.142018e-01
4.58          	bottomWall	4.154765e-01	4.154765e-01	4.154765e-01
4.59          	bottomWall	4.167207e-01	4.167207e-01	4.167207e-01
4.6           	bottomWall	4.179340e-01	4.179340e-01	4.179340e-01