# y+ ()       
# Time        	patch         	min           	max           	average       
0.01          	bottomWall	3.597471e-01	3.597471e-01	3.597471e-01
0.02          	bottomWall	3.029602e-01	3.029602e-01	3.029602e-01
0.03          	bottomWall	3.648178e-01	3.648178e-01	3.648178e-01
0.04          	bottomWall	3.816697e-01	3.816697e-01	3.816697e-01
0.05          	bottomWall	3.896769e-01	3.896769e-01	3.896769e-01
0.06          	bottomWall	3.936998e-01	3.936998e-01	3.936998e-01
0.07          	bottomWall	3.954740e-01	3.954740e-01	3.954740e-01
0.08          	bottomWall	3.958432e-01	3.958432e-01	3.958432e-01
0.09          	bottomWall	3.952896e-01	3.952896e-01	3.952896e-01
0.1           	bottomWall	3.941154e-01	3.941154e-01	3.941154e-01
0.11          	bottomWall	3.925198e-01	3.925198e-01	3.925198e-01
0.12          	bottomWall	3.906377e-01	3.906377e-01	3.906377e-01
0.13          	bottomWall	3.885617e-01	3.885617e-01	3.885617e-01
0.14          	bottomWall	3.863561e-01	3.863561e-01	3.863561e-01
0.15          	bottomWall	3.840654e-01	3.840654e-01	3.840654e-01
0.16          	bottomWall	3.817208e-01	3.817208e-01	3.817208e-01
0.17          	bottomWall	3.793437e-01	3.793437e-01	3.793437e-01
0.18          	bottomWall	3.769488e-01	3.769488e-01	3.769488e-01
0.19          	bottomWall	3.745460e-01	3.745460e-01	3.745460e-01
0.2           	bottomWall	3.721421e-01	3.721421e-01	3.721421e-01
0.21          	bottomWall	3.697409e-01	3.697409e-01	3.697409e-01
0.22          	bottomWall	3.673451e-01	3.673451e-01	3.673451e-01
0.23          	bottomWall	3.649557e-01	3.649557e-01	3.649557e-01
0.24          	bottomWall	3.625730e-01	3.625730e-01	3.625730e-01
0.25          	bottomWall	3.601967e-01	3.601967e-01	3.601967e-01
0.26          	bottomWall	3.578261e-01	3.578261e-01	3.578261e-01
0.27          	bottomWall	3.554602e-01	3.554602e-01	3.554602e-01
0.28          	bottomWall	3.530977e-01	3.530977e-01	3.530977e-01
0.29          	bottomWall	3.507373e-01	3.507373e-01	3.507373e-01
0.3           	bottomWall	3.483776e-01	3.483776e-01	3.483776e-01
0.31          	bottomWall	3.460173e-01	3.460173e-01	3.460173e-01
0.32          	bottomWall	3.436548e-01	3.436548e-01	3.436548e-01
0.33          	bottomWall	3.412889e-01	3.412889e-01	3.412889e-01
0.34          	bottomWall	3.389181e-01	3.389181e-01	3.389181e-01
0.35          	bottomWall	3.365411e-01	3.365411e-01	3.365411e-01
0.36          	bottomWall	3.341566e-01	3.341566e-01	3.341566e-01
0.37          	bottomWall	3.317635e-01	3.317635e-01	3.317635e-01
0.38          	bottomWall	3.293606e-01	3.293606e-01	3.293606e-01
0.39          	bottomWall	3.269466e-01	3.269466e-01	3.269466e-01
0.4           	bottomWall	3.245206e-01	3.245206e-01	3.245206e-01
0.41          	bottomWall	3.220816e-01	3.220816e-01	3.220816e-01
0.42          	bottomWall	3.196284e-01	3.196284e-01	3.196284e-01
0.43          	bottomWall	3.171603e-01	3.171603e-01	3.171603e-01
0.44          	bottomWall	3.146763e-01	3.146763e-01	3.146763e-01
0.45          	bottomWall	3.121755e-01	3.121755e-01	3.121755e-01
0.46          	bottomWall	3.096571e-01	3.096571e-01	3.096571e-01
0.47          	bottomWall	3.071203e-01	3.071203e-01	3.071203e-01
0.48          	bottomWall	3.045643e-01	3.045643e-01	3.045643e-01
0.49          	bottomWall	3.019884e-01	3.019884e-01	3.019884e-01
0.5           	bottomWall	2.993919e-01	2.993919e-01	2.993919e-01
0.51          	bottomWall	2.967740e-01	2.967740e-01	2.967740e-01
0.52          	bottomWall	2.941342e-01	2.941342e-01	2.941342e-01
0.53          	bottomWall	2.914716e-01	2.914716e-01	2.914716e-01
0.54          	bottomWall	2.887857e-01	2.887857e-01	2.887857e-01
0.55          	bottomWall	2.860758e-01	2.860758e-01	2.860758e-01
0.56          	bottomWall	2.833413e-01	2.833413e-01	2.833413e-01
0.57          	bottomWall	2.805816e-01	2.805816e-01	2.805816e-01
0.58          	bottomWall	2.777959e-01	2.777959e-01	2.777959e-01
0.59          	bottomWall	2.749837e-01	2.749837e-01	2.749837e-01
0.6           	bottomWall	2.721444e-01	2.721444e-01	2.721444e-01
0.61          	bottomWall	2.692773e-01	2.692773e-01	2.692773e-01
0.62          	bottomWall	2.663817e-01	2.663817e-01	2.663817e-01
0.63          	bottomWall	2.634570e-01	2.634570e-01	2.634570e-01
0.64          	bottomWall	2.605026e-01	2.605026e-01	2.605026e-01
0.65          	bottomWall	2.575176e-01	2.575176e-01	2.575176e-01
0.66          	bottomWall	2.545014e-01	2.545014e-01	2.545014e-01
0.67          	bottomWall	2.514533e-01	2.514533e-01	2.514533e-01
0.68          	bottomWall	2.483724e-01	2.483724e-01	2.483724e-01
0.69          	bottomWall	2.452580e-01	2.452580e-01	2.452580e-01
0.7           	bottomWall	2.421092e-01	2.421092e-01	2.421092e-01
0.71          	bottomWall	2.389251e-01	2.389251e-01	2.389251e-01
0.72          	bottomWall	2.357047e-01	2.357047e-01	2.357047e-01
0.73          	bottomWall	2.324471e-01	2.324471e-01	2.324471e-01
0.74          	bottomWall	2.291511e-01	2.291511e-01	2.291511e-01
0.75          	bottomWall	2.258156e-01	2.258156e-01	2.258156e-01
0.76          	bottomWall	2.224394e-01	2.224394e-01	2.224394e-01
0.77          	bottomWall	2.190210e-01	2.190210e-01	2.190210e-01
0.78          	bottomWall	2.155592e-01	2.155592e-01	2.155592e-01
0.79          	bottomWall	2.120523e-01	2.120523e-01	2.120523e-01
0.8           	bottomWall	2.084987e-01	2.084987e-01	2.084987e-01
0.81          	bottomWall	2.048964e-01	2.048964e-01	2.048964e-01
0.82          	bottomWall	2.012435e-01	2.012435e-01	2.012435e-01
0.83          	bottomWall	1.975377e-01	1.975377e-01	1.975377e-01
0.84          	bottomWall	1.937767e-01	1.937767e-01	1.937767e-01
0.85          	bottomWall	1.899576e-01	1.899576e-01	1.899576e-01
0.86          	bottomWall	1.860776e-01	1.860776e-01	1.860776e-01
0.87          	bottomWall	1.821333e-01	1.821333e-01	1.821333e-01
0.88          	bottomWall	1.781209e-01	1.781209e-01	1.781209e-01
0.89          	bottomWall	1.740363e-01	1.740363e-01	1.740363e-01
0.9           	bottomWall	1.698748e-01	1.698748e-01	1.698748e-01
0.91          	bottomWall	1.656310e-01	1.656310e-01	1.656310e-01
0.92          	bottomWall	1.612989e-01	1.612989e-01	1.612989e-01
0.93          	bottomWall	1.568715e-01	1.568715e-01	1.568715e-01
0.94          	bottomWall	1.523409e-01	1.523409e-01	1.523409e-01
0.95          	bottomWall	1.476977e-01	1.476977e-01	1.476977e-01
0.96          	bottomWall	1.429311e-01	1.429311e-01	1.429311e-01
0.97          	bottomWall	1.380284e-01	1.380284e-01	1.380284e-01
0.98          	bottomWall	1.329742e-01	1.329742e-01	1.329742e-01
0.99          	bottomWall	1.277504e-01	1.277504e-01	1.277504e-01
1             	bottomWall	1.223345e-01	1.223345e-01	1.223345e-01
1.01          	bottomWall	1.166990e-01	1.166990e-01	1.166990e-01
1.02          	bottomWall	1.108090e-01	1.108090e-01	1.108090e-01
1.03          	bottomWall	1.046197e-01	1.046197e-01	1.046197e-01
1.04          	bottomWall	9.807207e-02	9.807207e-02	9.807207e-02
1.05          	bottomWall	9.108514e-02	9.108514e-02	9.108514e-02
1.06          	bottomWall	8.354382e-02	8.354382e-02	8.354382e-02
1.07          	bottomWall	7.527444e-02	7.527444e-02	7.527444e-02
1.08          	bottomWall	6.599293e-02	6.599293e-02	6.599293e-02
1.09          	bottomWall	5.517320e-02	5.517320e-02	5.517320e-02
1.1           	bottomWall	4.159935e-02	4.159935e-02	4.159935e-02
1.11          	bottomWall	2.025342e-02	2.025342e-02	2.025342e-02
1.12          	bottomWall	3.036976e-02	3.036976e-02	3.036976e-02
1.13          	bottomWall	4.807173e-02	4.807173e-02	4.807173e-02
1.14          	bottomWall	6.045611e-02	6.045611e-02	6.045611e-02
1.15          	bottomWall	7.037732e-02	7.037732e-02	7.037732e-02
1.16          	bottomWall	7.879984e-02	7.879984e-02	7.879984e-02
1.17          	bottomWall	8.619345e-02	8.619345e-02	8.619345e-02
1.18          	bottomWall	9.282620e-02	9.282620e-02	9.282620e-02
1.19          	bottomWall	9.886774e-02	9.886774e-02	9.886774e-02
1.2           	bottomWall	1.044335e-01	1.044335e-01	1.044335e-01
1.21          	bottomWall	1.096063e-01	1.096063e-01	1.096063e-01
1.22          	bottomWall	1.144480e-01	1.144480e-01	1.144480e-01
1.23          	bottomWall	1.190066e-01	1.190066e-01	1.190066e-01
1.24          	bottomWall	1.233201e-01	1.233201e-01	1.233201e-01
1.25          	bottomWall	1.274194e-01	1.274194e-01	1.274194e-01
1.26          	bottomWall	1.313301e-01	1.313301e-01	1.313301e-01
1.27          	bottomWall	1.350737e-01	1.350737e-01	1.350737e-01
1.28          	bottomWall	1.386688e-01	1.386688e-01	1.386688e-01
1.29          	bottomWall	1.421312e-01	1.421312e-01	1.421312e-01
1.3           	bottomWall	1.454749e-01	1.454749e-01	1.454749e-01
1.31          	bottomWall	1.487122e-01	1.487122e-01	1.487122e-01
1.32          	bottomWall	1.518541e-01	1.518541e-01	1.518541e-01
1.33          	bottomWall	1.549105e-01	1.549105e-01	1.549105e-01
1.34          	bottomWall	1.578901e-01	1.578901e-01	1.578901e-01
1.35          	bottomWall	1.608010e-01	1.608010e-01	1.608010e-01
1.36          	bottomWall	1.636504e-01	1.636504e-01	1.636504e-01
1.37          	bottomWall	1.664451e-01	1.664451e-01	1.664451e-01
1.38          	bottomWall	1.691908e-01	1.691908e-01	1.691908e-01
1.39          	bottomWall	1.718932e-01	1.718932e-01	1.718932e-01
1.4           	bottomWall	1.745571e-01	1.745571e-01	1.745571e-01
1.41          	bottomWall	1.771871e-01	1.771871e-01	1.771871e-01
1.42          	bottomWall	1.797873e-01	1.797873e-01	1.797873e-01
1.43          	bottomWall	1.823612e-01	1.823612e-01	1.823612e-01
1.44          	bottomWall	1.849122e-01	1.849122e-01	1.849122e-01
1.45          	bottomWall	1.874432e-01	1.874432e-01	1.874432e-01
1.46          	bottomWall	1.899568e-01	1.899568e-01	1.899568e-01
1.47          	bottomWall	1.924555e-01	1.924555e-01	1.924555e-01
1.48          	bottomWall	1.949411e-01	1.949411e-01	1.949411e-01
1.49          	bottomWall	1.974155e-01	1.974155e-01	1.974155e-01
1.5           	bottomWall	1.998802e-01	1.998802e-01	1.998802e-01
1.51          	bottomWall	2.023366e-01	2.023366e-01	2.023366e-01
1.52          	bottomWall	2.047858e-01	2.047858e-01	2.047858e-01
1.53          	bottomWall	2.072287e-01	2.072287e-01	2.072287e-01
1.54          	bottomWall	2.096661e-01	2.096661e-01	2.096661e-01
1.55          	bottomWall	2.120987e-01	2.120987e-01	2.120987e-01
1.56          	bottomWall	2.145270e-01	2.145270e-01	2.145270e-01
1.57          	bottomWall	2.169514e-01	2.169514e-01	2.169514e-01
1.58          	bottomWall	2.193722e-01	2.193722e-01	2.193722e-01
1.59          	bottomWall	2.217895e-01	2.217895e-01	2.217895e-01
1.6           	bottomWall	2.242035e-01	2.242035e-01	2.242035e-01
1.61          	bottomWall	2.266143e-01	2.266143e-01	2.266143e-01
1.62          	bottomWall	2.290218e-01	2.290218e-01	2.290218e-01
1.63          	bottomWall	2.314259e-01	2.314259e-01	2.314259e-01
1.64          	bottomWall	2.338267e-01	2.338267e-01	2.338267e-01
1.65          	bottomWall	2.362238e-01	2.362238e-01	2.362238e-01
1.66          	bottomWall	2.386171e-01	2.386171e-01	2.386171e-01
1.67          	bottomWall	2.410064e-01	2.410064e-01	2.410064e-01
1.68          	bottomWall	2.433914e-01	2.433914e-01	2.433914e-01
1.69          	bottomWall	2.457720e-01	2.457720e-01	2.457720e-01
1.7           	bottomWall	2.481478e-01	2.481478e-01	2.481478e-01
1.71          	bottomWall	2.505186e-01	2.505186e-01	2.505186e-01
1.72          	bottomWall	2.528840e-01	2.528840e-01	2.528840e-01
1.73          	bottomWall	2.552437e-01	2.552437e-01	2.552437e-01
1.74          	bottomWall	2.575975e-01	2.575975e-01	2.575975e-01
1.75          	bottomWall	2.599450e-01	2.599450e-01	2.599450e-01
1.76          	bottomWall	2.622859e-01	2.622859e-01	2.622859e-01
1.77          	bottomWall	2.646200e-01	2.646200e-01	2.646200e-01
1.78          	bottomWall	2.669468e-01	2.669468e-01	2.669468e-01
1.79          	bottomWall	2.692661e-01	2.692661e-01	2.692661e-01
1.8           	bottomWall	2.715775e-01	2.715775e-01	2.715775e-01
1.81          	bottomWall	2.738808e-01	2.738808e-01	2.738808e-01
1.82          	bottomWall	2.761756e-01	2.761756e-01	2.761756e-01
1.83          	bottomWall	2.784617e-01	2.784617e-01	2.784617e-01
1.84          	bottomWall	2.807387e-01	2.807387e-01	2.807387e-01
1.85          	bottomWall	2.830064e-01	2.830064e-01	2.830064e-01
1.86          	bottomWall	2.852644e-01	2.852644e-01	2.852644e-01
1.87          	bottomWall	2.875125e-01	2.875125e-01	2.875125e-01
1.88          	bottomWall	2.897504e-01	2.897504e-01	2.897504e-01
1.89          	bottomWall	2.919779e-01	2.919779e-01	2.919779e-01
1.9           	bottomWall	2.941945e-01	2.941945e-01	2.941945e-01
1.91          	bottomWall	2.964002e-01	2.964002e-01	2.964002e-01
1.92          	bottomWall	2.985946e-01	2.985946e-01	2.985946e-01
1.93          	bottomWall	3.007774e-01	3.007774e-01	3.007774e-01
1.94          	bottomWall	3.029485e-01	3.029485e-01	3.029485e-01
1.95          	bottomWall	3.051076e-01	3.051076e-01	3.051076e-01
1.96          	bottomWall	3.072543e-01	3.072543e-01	3.072543e-01
1.97          	bottomWall	3.093886e-01	3.093886e-01	3.093886e-01
1.98          	bottomWall	3.115101e-01	3.115101e-01	3.115101e-01
1.99          	bottomWall	3.136187e-01	3.136187e-01	3.136187e-01
2             	bottomWall	3.157140e-01	3.157140e-01	3.157140e-01
2.01          	bottomWall	3.177959e-01	3.177959e-01	3.177959e-01
2.02          	bottomWall	3.198642e-01	3.198642e-01	3.198642e-01
2.03          	bottomWall	3.219186e-01	3.219186e-01	3.219186e-01
2.04          	bottomWall	3.239590e-01	3.239590e-01	3.239590e-01
2.05          	bottomWall	3.259851e-01	3.259851e-01	3.259851e-01
2.06          	bottomWall	3.279967e-01	3.279967e-01	3.279967e-01
2.07          	bottomWall	3.299937e-01	3.299937e-01	3.299937e-01
2.08          	bottomWall	3.319757e-01	3.319757e-01	3.319757e-01
2.09          	bottomWall	3.339428e-01	3.339428e-01	3.339428e-01
2.1           	bottomWall	3.358945e-01	3.358945e-01	3.358945e-01
2.11          	bottomWall	3.378308e-01	3.378308e-01	3.378308e-01
2.12          	bottomWall	3.397515e-01	3.397515e-01	3.397515e-01
2.13          	bottomWall	3.416564e-01	3.416564e-01	3.416564e-01
2.14          	bottomWall	3.435453e-01	3.435453e-01	3.435453e-01
2.15          	bottomWall	3.454180e-01	3.454180e-01	3.454180e-01
2.16          	bottomWall	3.472744e-01	3.472744e-01	3.472744e-01
2.17          	bottomWall	3.491142e-01	3.491142e-01	3.491142e-01
2.18          	bottomWall	3.509374e-01	3.509374e-01	3.509374e-01
2.19          	bottomWall	3.527437e-01	3.527437e-01	3.527437e-01
2.2           	bottomWall	3.545330e-01	3.545330e-01	3.545330e-01
2.21          	bottomWall	3.563052e-01	3.563052e-01	3.563052e-01
2.22          	bottomWall	3.580599e-01	3.580599e-01	3.580599e-01
2.23          	bottomWall	3.597972e-01	3.597972e-01	3.597972e-01
2.24          	bottomWall	3.615169e-01	3.615169e-01	3.615169e-01
2.25          	bottomWall	3.632187e-01	3.632187e-01	3.632187e-01
2.26          	bottomWall	3.649025e-01	3.649025e-01	3.649025e-01
2.27          	bottomWall	3.665683e-01	3.665683e-01	3.665683e-01
2.28          	bottomWall	3.682157e-01	3.682157e-01	3.682157e-01
2.29          	bottomWall	3.698448e-01	3.698448e-01	3.698448e-01
2.3           	bottomWall	3.714553e-01	3.714553e-01	3.714553e-01
2.31          	bottomWall	3.730471e-01	3.730471e-01	3.730471e-01
2.32          	bottomWall	3.746200e-01	3.746200e-01	3.746200e-01
2.33          	bottomWall	3.761740e-01	3.761740e-01	3.761740e-01
2.34          	bottomWall	3.777088e-01	3.777088e-01	3.777088e-01
2.35          	bottomWall	3.792243e-01	3.792243e-01	3.792243e-01
2.36          	bottomWall	3.807205e-01	3.807205e-01	3.807205e-01
2.37          	bottomWall	3.821971e-01	3.821971e-01	3.821971e-01
2.38          	bottomWall	3.836541e-01	3.836541e-01	3.836541e-01
2.39          	bottomWall	3.850912e-01	3.850912e-01	3.850912e-01
2.4           	bottomWall	3.865085e-01	3.865085e-01	3.865085e-01
2.41          	bottomWall	3.879056e-01	3.879056e-01	3.879056e-01
2.42          	bottomWall	3.892826e-01	3.892826e-01	3.892826e-01
2.43          	bottomWall	3.906392e-01	3.906392e-01	3.906392e-01
2.44          	bottomWall	3.919755e-01	3.919755e-01	3.919755e-01
2.45          	bottomWall	3.932911e-01	3.932911e-01	3.932911e-01
2.46          	bottomWall	3.945861e-01	3.945861e-01	3.945861e-01
2.47          	bottomWall	3.958602e-01	3.958602e-01	3.958602e-01
2.48          	bottomWall	3.971135e-01	3.971135e-01	3.971135e-01
2.49          	bottomWall	3.983457e-01	3.983457e-01	3.983457e-01
2.5           	bottomWall	3.995567e-01	3.995567e-01	3.995567e-01
2.51          	bottomWall	4.007464e-01	4.007464e-01	4.007464e-01
2.52          	bottomWall	4.019148e-01	4.019148e-01	4.019148e-01
2.53          	bottomWall	4.030617e-01	4.030617e-01	4.030617e-01
2.54          	bottomWall	4.041869e-01	4.041869e-01	4.041869e-01
2.55          	bottomWall	4.052904e-01	4.052904e-01	4.052904e-01
2.56          	bottomWall	4.063721e-01	4.063721e-01	4.063721e-01
2.57          	bottomWall	4.074319e-01	4.074319e-01	4.074319e-01
2.58          	bottomWall	4.084695e-01	4.084695e-01	4.084695e-01
2.59          	bottomWall	4.094851e-01	4.094851e-01	4.094851e-01
2.6           	bottomWall	4.104783e-01	4.104783e-01	4.104783e-01
2.61          	bottomWall	4.114492e-01	4.114492e-01	4.114492e-01
2.62          	bottomWall	4.123977e-01	4.123977e-01	4.123977e-01
2.63          	bottomWall	4.133235e-01	4.133235e-01	4.133235e-01
2.64          	bottomWall	4.142267e-01	4.142267e-01	4.142267e-01
2.65          	bottomWall	4.151072e-01	4.151072e-01	4.151072e-01
2.66          	bottomWall	4.159647e-01	4.159647e-01	4.159647e-01
2.67          	bottomWall	4.167993e-01	4.167993e-01	4.167993e-01
2.68          	bottomWall	4.176109e-01	4.176109e-01	4.176109e-01
2.69          	bottomWall	4.183993e-01	4.183993e-01	4.183993e-01
2.7           	bottomWall	4.191644e-01	4.191644e-01	4.191644e-01
2.71          	bottomWall	4.199062e-01	4.199062e-01	4.199062e-01
2.72          	bottomWall	4.206246e-01	4.206246e-01	4.206246e-01
2.73          	bottomWall	4.213195e-01	4.213195e-01	4.213195e-01
2.74          	bottomWall	4.219907e-01	4.219907e-01	4.219907e-01
2.75          	bottomWall	4.226383e-01	4.226383e-01	4.226383e-01
2.76          	bottomWall	4.232621e-01	4.232621e-01	4.232621e-01
2.77          	bottomWall	4.238620e-01	4.238620e-01	4.238620e-01
2.78          	bottomWall	4.244380e-01	4.244380e-01	4.244380e-01
2.79          	bottomWall	4.249899e-01	4.249899e-01	4.249899e-01
2.8           	bottomWall	4.255177e-01	4.255177e-01	4.255177e-01
2.81          	bottomWall	4.260213e-01	4.260213e-01	4.260213e-01
2.82          	bottomWall	4.265006e-01	4.265006e-01	4.265006e-01
2.83          	bottomWall	4.269556e-01	4.269556e-01	4.269556e-01
2.84          	bottomWall	4.273862e-01	4.273862e-01	4.273862e-01
2.85          	bottomWall	4.277922e-01	4.277922e-01	4.277922e-01
2.86          	bottomWall	4.281736e-01	4.281736e-01	4.281736e-01
2.87          	bottomWall	4.285304e-01	4.285304e-01	4.285304e-01
2.88          	bottomWall	4.288624e-01	4.288624e-01	4.288624e-01
2.89          	bottomWall	4.291696e-01	4.291696e-01	4.291696e-01
2.9           	bottomWall	4.294520e-01	4.294520e-01	4.294520e-01
2.91          	bottomWall	4.297093e-01	4.297093e-01	4.297093e-01
2.92          	bottomWall	4.299417e-01	4.299417e-01	4.299417e-01
2.93          	bottomWall	4.301490e-01	4.301490e-01	4.301490e-01
2.94          	bottomWall	4.303310e-01	4.303310e-01	4.303310e-01
2.95          	bottomWall	4.304879e-01	4.304879e-01	4.304879e-01
2.96          	bottomWall	4.306195e-01	4.306195e-01	4.306195e-01
2.97          	bottomWall	4.307257e-01	4.307257e-01	4.307257e-01
2.98          	bottomWall	4.308064e-01	4.308064e-01	4.308064e-01
2.99          	bottomWall	4.308617e-01	4.308617e-01	4.308617e-01
3             	bottomWall	4.308915e-01	4.308915e-01	4.308915e-01
3.01          	bottomWall	4.308956e-01	4.308956e-01	4.308956e-01
3.02          	bottomWall	4.308740e-01	4.308740e-01	4.308740e-01
3.03          	bottomWall	4.308267e-01	4.308267e-01	4.308267e-01
3.04          	bottomWall	4.307536e-01	4.307536e-01	4.307536e-01
3.05          	bottomWall	4.306547e-01	4.306547e-01	4.306547e-01
3.06          	bottomWall	4.305298e-01	4.305298e-01	4.305298e-01
3.07          	bottomWall	4.303790e-01	4.303790e-01	4.303790e-01
3.08          	bottomWall	4.302022e-01	4.302022e-01	4.302022e-01
3.09          	bottomWall	4.299993e-01	4.299993e-01	4.299993e-01
3.1           	bottomWall	4.297702e-01	4.297702e-01	4.297702e-01
3.11          	bottomWall	4.295150e-01	4.295150e-01	4.295150e-01
3.12          	bottomWall	4.292335e-01	4.292335e-01	4.292335e-01
3.13          	bottomWall	4.289257e-01	4.289257e-01	4.289257e-01
3.14          	bottomWall	4.285916e-01	4.285916e-01	4.285916e-01
3.15          	bottomWall	4.282311e-01	4.282311e-01	4.282311e-01
3.16          	bottomWall	4.278442e-01	4.278442e-01	4.278442e-01
3.17          	bottomWall	4.274308e-01	4.274308e-01	4.274308e-01
3.18          	bottomWall	4.269908e-01	4.269908e-01	4.269908e-01
3.19          	bottomWall	4.265242e-01	4.265242e-01	4.265242e-01
3.2           	bottomWall	4.260311e-01	4.260311e-01	4.260311e-01
3.21          	bottomWall	4.255112e-01	4.255112e-01	4.255112e-01
3.22          	bottomWall	4.249646e-01	4.249646e-01	4.249646e-01
3.23          	bottomWall	4.243912e-01	4.243912e-01	4.243912e-01
3.24          	bottomWall	4.237911e-01	4.237911e-01	4.237911e-01
3.25          	bottomWall	4.231640e-01	4.231640e-01	4.231640e-01
3.26          	bottomWall	4.225101e-01	4.225101e-01	4.225101e-01
3.27          	bottomWall	4.218292e-01	4.218292e-01	4.218292e-01
3.28          	bottomWall	4.211214e-01	4.211214e-01	4.211214e-01
3.29          	bottomWall	4.203865e-01	4.203865e-01	4.203865e-01
3.3           	bottomWall	4.196245e-01	4.196245e-01	4.196245e-01
3.31          	bottomWall	4.188354e-01	4.188354e-01	4.188354e-01
3.32          	bottomWall	4.180192e-01	4.180192e-01	4.180192e-01
3.33          	bottomWall	4.171758e-01	4.171758e-01	4.171758e-01
3.34          	bottomWall	4.163051e-01	4.163051e-01	4.163051e-01
3.35          	bottomWall	4.154072e-01	4.154072e-01	4.154072e-01
3.36          	bottomWall	4.144819e-01	4.144819e-01	4.144819e-01
3.37          	bottomWall	4.135293e-01	4.135293e-01	4.135293e-01
3.38          	bottomWall	4.125493e-01	4.125493e-01	4.125493e-01
3.39          	bottomWall	4.115419e-01	4.115419e-01	4.115419e-01
3.4           	bottomWall	4.105069e-01	4.105069e-01	4.105069e-01
3.41          	bottomWall	4.094445e-01	4.094445e-01	4.094445e-01
3.42          	bottomWall	4.083545e-01	4.083545e-01	4.083545e-01
3.43          	bottomWall	4.072370e-01	4.072370e-01	4.072370e-01
3.44          	bottomWall	4.060918e-01	4.060918e-01	4.060918e-01
3.45          	bottomWall	4.049189e-01	4.049189e-01	4.049189e-01
3.46          	bottomWall	4.037183e-01	4.037183e-01	4.037183e-01
3.47          	bottomWall	4.024900e-01	4.024900e-01	4.024900e-01
3.48          	bottomWall	4.012339e-01	4.012339e-01	4.012339e-01
3.49          	bottomWall	3.999499e-01	3.999499e-01	3.999499e-01
3.5           	bottomWall	3.986381e-01	3.986381e-01	3.986381e-01
3.51          	bottomWall	3.972983e-01	3.972983e-01	3.972983e-01
3.52          	bottomWall	3.959306e-01	3.959306e-01	3.959306e-01
3.53          	bottomWall	3.945349e-01	3.945349e-01	3.945349e-01
3.54          	bottomWall	3.931112e-01	3.931112e-01	3.931112e-01
3.55          	bottomWall	3.916594e-01	3.916594e-01	3.916594e-01
3.56          	bottomWall	3.901794e-01	3.901794e-01	3.901794e-01
3.57          	bottomWall	3.886712e-01	3.886712e-01	3.886712e-01
3.58          	bottomWall	3.871348e-01	3.871348e-01	3.871348e-01
3.59          	bottomWall	3.855701e-01	3.855701e-01	3.855701e-01
3.6           	bottomWall	3.839771e-01	3.839771e-01	3.839771e-01
3.61          	bottomWall	3.823557e-01	3.823557e-01	3.823557e-01
3.62          	bottomWall	3.807059e-01	3.807059e-01	3.807059e-01
3.63          	bottomWall	3.790276e-01	3.790276e-01	3.790276e-01
3.64          	bottomWall	3.773207e-01	3.773207e-01	3.773207e-01
3.65          	bottomWall	3.755851e-01	3.755851e-01	3.755851e-01
3.66          	bottomWall	3.738209e-01	3.738209e-01	3.738209e-01
3.67          	bottomWall	3.720280e-01	3.720280e-01	3.720280e-01
3.68          	bottomWall	3.702062e-01	3.702062e-01	3.702062e-01
3.69          	bottomWall	3.683555e-01	3.683555e-01	3.683555e-01
3.7           	bottomWall	3.664758e-01	3.664758e-01	3.664758e-01
3.71          	bottomWall	3.645670e-01	3.645670e-01	3.645670e-01
3.72          	bottomWall	3.626290e-01	3.626290e-01	3.626290e-01
3.73          	bottomWall	3.606618e-01	3.606618e-01	3.606618e-01
3.74          	bottomWall	3.586652e-01	3.586652e-01	3.586652e-01
3.75          	bottomWall	3.566392e-01	3.566392e-01	3.566392e-01
3.76          	bottomWall	3.545835e-01	3.545835e-01	3.545835e-01
3.77          	bottomWall	3.524982e-01	3.524982e-01	3.524982e-01
3.78          	bottomWall	3.503829e-01	3.503829e-01	3.503829e-01
3.79          	bottomWall	3.482377e-01	3.482377e-01	3.482377e-01
3.8           	bottomWall	3.460623e-01	3.460623e-01	3.460623e-01
3.81          	bottomWall	3.438567e-01	3.438567e-01	3.438567e-01
3.82          	bottomWall	3.416205e-01	3.416205e-01	3.416205e-01
3.83          	bottomWall	3.393537e-01	3.393537e-01	3.393537e-01
3.84          	bottomWall	3.370560e-01	3.370560e-01	3.370560e-01
3.85          	bottomWall	3.347273e-01	3.347273e-01	3.347273e-01
3.86          	bottomWall	3.323673e-01	3.323673e-01	3.323673e-01
3.87          	bottomWall	3.299758e-01	3.299758e-01	3.299758e-01
3.88          	bottomWall	3.275525e-01	3.275525e-01	3.275525e-01
3.89          	bottomWall	3.250972e-01	3.250972e-01	3.250972e-01
3.9           	bottomWall	3.226095e-01	3.226095e-01	3.226095e-01
3.91          	bottomWall	3.200893e-01	3.200893e-01	3.200893e-01
3.92          	bottomWall	3.175361e-01	3.175361e-01	3.175361e-01
3.93          	bottomWall	3.149496e-01	3.149496e-01	3.149496e-01
3.94          	bottomWall	3.123295e-01	3.123295e-01	3.123295e-01
3.95          	bottomWall	3.096754e-01	3.096754e-01	3.096754e-01
3.96          	bottomWall	3.069868e-01	3.069868e-01	3.069868e-01
3.97          	bottomWall	3.042634e-01	3.042634e-01	3.042634e-01
3.98          	bottomWall	3.015045e-01	3.015045e-01	3.015045e-01
3.99          	bottomWall	2.987099e-01	2.987099e-01	2.987099e-01
4             	bottomWall	2.958788e-01	2.958788e-01	2.958788e-01
4.01          	bottomWall	2.930108e-01	2.930108e-01	2.930108e-01
4.02          	bottomWall	2.901052e-01	2.901052e-01	2.901052e-01
4.03          	bottomWall	2.871614e-01	2.871614e-01	2.871614e-01
4.04          	bottomWall	2.841787e-01	2.841787e-01	2.841787e-01
4.05          	bottomWall	2.811564e-01	2.811564e-01	2.811564e-01
4.06          	bottomWall	2.780935e-01	2.780935e-01	2.780935e-01
4.07          	bottomWall	2.749893e-01	2.749893e-01	2.749893e-01
4.08          	bottomWall	2.718429e-01	2.718429e-01	2.718429e-01
4.09          	bottomWall	2.686532e-01	2.686532e-01	2.686532e-01
4.1           	bottomWall	2.654192e-01	2.654192e-01	2.654192e-01
4.11          	bottomWall	2.621398e-01	2.621398e-01	2.621398e-01
4.12          	bottomWall	2.588136e-01	2.588136e-01	2.588136e-01
4.13          	bottomWall	2.554393e-01	2.554393e-01	2.554393e-01
4.14          	bottomWall	2.520155e-01	2.520155e-01	2.520155e-01
4.15          	bottomWall	2.485407e-01	2.485407e-01	2.485407e-01
4.16          	bottomWall	2.450129e-01	2.450129e-01	2.450129e-01
4.17          	bottomWall	2.414305e-01	2.414305e-01	2.414305e-01
4.18          	bottomWall	2.377914e-01	2.377914e-01	2.377914e-01
4.19          	bottomWall	2.340932e-01	2.340932e-01	2.340932e-01
4.2           	bottomWall	2.303337e-01	2.303337e-01	2.303337e-01
4.21          	bottomWall	2.265101e-01	2.265101e-01	2.265101e-01
4.22          	bottomWall	2.226195e-01	2.226195e-01	2.226195e-01
4.23          	bottomWall	2.186586e-01	2.186586e-01	2.186586e-01
4.24          	bottomWall	2.146238e-01	2.146238e-01	2.146238e-01
4.25          	bottomWall	2.105112e-01	2.105112e-01	2.105112e-01
4.26          	bottomWall	2.063164e-01	2.063164e-01	2.063164e-01
4.27          	bottomWall	2.020343e-01	2.020343e-01	2.020343e-01
4.28          	bottomWall	1.976595e-01	1.976595e-01	1.976595e-01
4.29          	bottomWall	1.931857e-01	1.931857e-01	1.931857e-01
4.3           	bottomWall	1.886058e-01	1.886058e-01	1.886058e-01
4.31          	bottomWall	1.839118e-01	1.839118e-01	1.839118e-01
4.32          	bottomWall	1.790946e-01	1.790946e-01	1.790946e-01
4.33          	bottomWall	1.741435e-01	1.741435e-01	1.741435e-01
4.34          	bottomWall	1.690463e-01	1.690463e-01	1.690463e-01
4.35          	bottomWall	1.637888e-01	1.637888e-01	1.637888e-01
4.36          	bottomWall	1.583541e-01	1.583541e-01	1.583541e-01
4.37          	bottomWall	1.527221e-01	1.527221e-01	1.527221e-01
4.38          	bottomWall	1.468688e-01	1.468688e-01	1.468688e-01
4.39          	bottomWall	1.407647e-01	1.407647e-01	1.407647e-01
4.4           	bottomWall	1.343732e-01	1.343732e-01	1.343732e-01
4.41          	bottomWall	1.276482e-01	1.276482e-01	1.276482e-01
4.42          	bottomWall	1.205299e-01	1.205299e-01	1.205299e-01
4.43          	bottomWall	1.129391e-01	1.129391e-01	1.129391e-01
4.44          	bottomWall	1.047663e-01	1.047663e-01	1.047663e-01
4.45          	bottomWall	9.585353e-02	9.585353e-02	9.585353e-02
4.46          	bottomWall	8.595798e-02	8.595798e-02	8.595798e-02
4.47          	bottomWall	7.467065e-02	7.467065e-02	7.467065e-02
4.48          	bottomWall	6.119487e-02	6.119487e-02	6.119487e-02
4.49          	bottomWall	4.348223e-02	4.348223e-02	4.348223e-02
4.5           	bottomWall	2.385494e-03	2.385494e-03	2.385494e-03
4.51          	bottomWall	4.358680e-02	4.358680e-02	4.358680e-02
4.52          	bottomWall	6.266111e-02	6.266111e-02	6.266111e-02
4.53          	bottomWall	7.689954e-02	7.689954e-02	7.689954e-02
4.54          	bottomWall	8.854178e-02	8.854178e-02	8.854178e-02
4.55          	bottomWall	9.853188e-02	9.853188e-02	9.853188e-02
4.56          	bottomWall	1.073604e-01	1.073604e-01	1.073604e-01
4.57          	bottomWall	1.153188e-01	1.153188e-01	1.153188e-01
4.58          	bottomWall	1.225958e-01	1.225958e-01	1.225958e-01
4.59          	bottomWall	1.293218e-01	1.293218e-01	1.293218e-01
4.6           	bottomWall	1.355908e-01	1.355908e-01	1.355908e-01